
 Primary working directories    : /scr/matheus/molpro-14431/molpro.iee6JAejRJ
 Secondary working directories  : /scr/matheus/molpro-14431/molpro.iee6JAejRJ
 Wavefunction directory         : /home/matheus/wfu/
 Main file repository           : /scr/matheus/molpro-14431/molpro.iee6JAejRJ/

 id        : yuriaoto

 Nodes             nprocs
 t-rex.ufabc.int.br    1

 Using customized tuning parameters: mindgm=8; mindgv=16; mindgc=1; mindgr=1; noblas=0; minvec=7
 default implementation of scratch files=df  


 Variables initialized (933), CPU time= 0.00 sec
                                                                                 !! Extra options
 gprint, orbitals=0, civec, basis
 gthresh,thrprint=0
                                                                                 !!!
 
 basis=cc-pvtz                                                                   !Basis set
 
                                                                                 ! Molecule xyz file
 geometry={
 Including file /home/matheus/RAM_tests/C2H4_hf.xyz
 >   6
 > HF-SCF000/CC-PVTZ  ENERGY=-78.06442007
 > C          0.6569568868        0.0000000000        0.0000000000
 > C         -0.6569568868        0.0000000000        0.0000000000
 > H          1.2208512433        0.0000000000        0.9144803305
 > H          1.2208512433        0.0000000000       -0.9144803305
 > H         -1.2208512433        0.0000000000        0.9144803305
 > H         -1.2208512433        0.0000000000       -0.9144803305
 }
 
                                                                                 ! Methods
 hf
 mp2
 
 optg
 
 Commands  initialized (760), CPU time= 0.01 sec, 617 directives.
 Default parameters read. Elapsed time= 0.10 sec

 Checking input...
 Passed
1


                                         ***  PROGRAM SYSTEM MOLPRO  ***
                                       Copyright, TTI GmbH Stuttgart, 2015
                                    Version 2019.2 linked Abr  7 2019 15:10:35


 **********************************************************************************************************************************
 LABEL *                                                                                 
  64 bit serial version                                                                  DATE: 30-Jan-24          TIME: 11:29:00  
 **********************************************************************************************************************************

 SHA1:             3a8a58c585c929645742fb5a1b7541a4ad1da699
 **********************************************************************************************************************************


 THRESHOLDS:

 ZERO    =  1.00D-12  ONEINT  =  1.00D-12  TWOINT  =  1.00D-11  PREFAC  =  1.00D-14  XXXXXX  =  1.00D-09  EORDER  =  1.00D-04
 ENERGY  =  0.00D+00  ETEST   =  0.00D+00  EDENS   =  0.00D+00  THRDEDEF=  1.00D-06  GRADIENT=  1.00D-02  STEP    =  1.00D-03
 ORBITAL =  1.00D-05  CIVEC   =  1.00D-05  COEFF   =  1.00D-04  PRINTCI =  5.00D-02  PUNCHCI =  9.90D+01  OPTGRAD =  3.00D-04
 OPTENERG=  1.00D-06  OPTSTEP =  3.00D-04  THRGRAD =  1.00D-10  COMPRESS=  1.00D-11  VARMIN  =  1.00D-07  VARMAX  =  1.00D-03
 THRDOUB =  0.00D+00  THRDIV  =  1.00D-05  THRRED  =  1.00D-07  THRPSP  =  1.00D+00  THRDC   =  1.00D-10  THRCS   =  1.00D-10
 THRNRM  =  1.00D-08  THREQ   =  0.00D+00  THRDE   =  1.00D+00  THRREF  =  1.00D-05  SPARFAC =  1.00D+00  THRDLP  =  1.00D-07
 THRDIA  =  1.00D-10  THRDLS  =  1.00D-07  THRGPS  =  0.00D+00  THRKEX  =  0.00D+00  THRDIS  =  2.00D-01  THRVAR  =  1.00D-10
 THRLOC  =  1.00D-06  THRGAP  =  1.00D-06  THRLOCT = -1.00D+00  THRGAPT = -1.00D+00  THRORB  =  1.00D-06  THRMLTP =  0.00D+00
 THRCPQCI=  1.00D-10  KEXTA   =  0.00D+00  THRCOARS=  0.00D+00  SYMTOL  =  1.00D-06  GRADTOL =  1.00D-06  THROVL  =  1.00D-08
 THRORTH =  1.00D-08  GRID    =  1.00D-06  GRIDMAX =  1.00D-03  DTMAX   =  0.00D+00  THROCCDE=  1.00D-01  THROCCDE=  1.00D-01
 THRPRINT=  0.00D+00


 Variable memory set to    8000000 words,  buffer space 

 SETTING BASIS          =    CC-PVTZ

Geometry recognized as XYZ



 Recomputing integrals since basis changed


 Using spherical harmonics

 Library entry C      S cc-pVTZ              selected for orbital group  1
 Library entry C      P cc-pVTZ              selected for orbital group  1
 Library entry C      D cc-pVTZ              selected for orbital group  1
 Library entry C      F cc-pVTZ              selected for orbital group  1
 Library entry H      S cc-pVTZ              selected for orbital group  2
 Library entry H      P cc-pVTZ              selected for orbital group  2
 Library entry H      D cc-pVTZ              selected for orbital group  2


 PROGRAM * SEWARD (Integral evaluation for generally contracted gaussian basis sets)     Author: Roland Lindh, 1990

 Geometry written to block  1 of record 700


 Point group  D2h 



 ATOMIC COORDINATES

 NR  ATOM    CHARGE       X              Y              Z

   1  C       6.00    1.241468592    0.000000000    0.000000000
   2  C       6.00   -1.241468592    0.000000000    0.000000000
   3  H       1.00    2.307074489    0.000000000    1.728117371
   4  H       1.00    2.307074489    0.000000000   -1.728117371
   5  H       1.00   -2.307074489    0.000000000    1.728117371
   6  H       1.00   -2.307074489    0.000000000   -1.728117371

 Bond lengths in Bohr (Angstrom)

 1-2  2.482937183  1-3  2.030247664  1-4  2.030247664  2-5  2.030247664  2-6  2.030247664
     ( 1.313913774)     ( 1.074360796)     ( 1.074360796)     ( 1.074360796)     ( 1.074360796)

 Bond angles

  1-2-5  121.65915414   1-2-6  121.65915414   2-1-3  121.65915414   2-1-4  121.65915414

  3-1-4  116.68169172   5-2-6  116.68169172


 BASIS DATA

   Nr Sym  Nuc  Type         Exponents   Contraction coefficients

    1.1 Ag    1  1s        8236.000000     0.000531   -0.000113    0.000000    0.000000
    2.1 Ag    2  1s        1235.000000     0.004108   -0.000878    0.000000    0.000000
    3.1 Ag                  280.800000     0.021087   -0.004540    0.000000    0.000000
    4.1 Ag                   79.270000     0.081853   -0.018133    0.000000    0.000000
                             25.590000     0.234817   -0.055760    0.000000    0.000000
                              8.997000     0.434401   -0.126895    0.000000    0.000000
                              3.319000     0.346129   -0.170352    0.000000    0.000000
                              0.905900     0.039378    0.140382    1.000000    0.000000
                              0.364300    -0.008983    0.598684    0.000000    0.000000
                              0.128500     0.002385    0.395389    0.000000    1.000000
    5.1 Ag    1  2px         18.710000     0.014031    0.000000    0.000000
    6.1 Ag    2 -2px          4.133000     0.086866    0.000000    0.000000
    7.1 Ag                    1.200000     0.290216    0.000000    0.000000
                              0.382700     0.501008    1.000000    0.000000
                              0.120900     0.343406    0.000000    1.000000
    8.1 Ag    1  3d0          1.097000     1.000000
              2  3d0   
    9.1 Ag    1  3d2+         1.097000     1.000000
              2  3d2+  
   10.1 Ag    1  3d0          0.318000     1.000000
              2  3d0   
   11.1 Ag    1  3d2+         0.318000     1.000000
              2  3d2+  
   12.1 Ag    1  4f1+         0.761000     1.000000
              2 -4f1+  
   13.1 Ag    1  4f3+         0.761000     1.000000
              2 -4f3+  
   14.1 Ag    3  1s          33.870000     0.006068    0.000000    0.000000
   15.1 Ag    4  1s           5.095000     0.045308    0.000000    0.000000
   16.1 Ag    5  1s           1.159000     0.202822    0.000000    0.000000
              6  1s           0.325800     0.503903    1.000000    0.000000
                              0.102700     0.383421    0.000000    1.000000
   17.1 Ag    3  2px          1.407000     1.000000
              4  2px   
              5 -2px   
              6 -2px   
   18.1 Ag    3  2pz          1.407000     1.000000
              4 -2pz   
              5  2pz   
              6 -2pz   
   19.1 Ag    3  2px          0.388000     1.000000
              4  2px   
              5 -2px   
              6 -2px   
   20.1 Ag    3  2pz          0.388000     1.000000
              4 -2pz   
              5  2pz   
              6 -2pz   
   21.1 Ag    3  3d0          1.057000     1.000000
              4  3d0   
              5  3d0   
              6  3d0   
   22.1 Ag    3  3d2+         1.057000     1.000000
              4  3d2+  
              5  3d2+  
              6  3d2+  
   23.1 Ag    3  3d1+         1.057000     1.000000
              4 -3d1+  
              5 -3d1+  
              6  3d1+  
    1.2 B3u   1  1s        8236.000000     0.000531   -0.000113    0.000000    0.000000
    2.2 B3u   2 -1s        1235.000000     0.004108   -0.000878    0.000000    0.000000
    3.2 B3u                 280.800000     0.021087   -0.004540    0.000000    0.000000
    4.2 B3u                  79.270000     0.081853   -0.018133    0.000000    0.000000
                             25.590000     0.234817   -0.055760    0.000000    0.000000
                              8.997000     0.434401   -0.126895    0.000000    0.000000
                              3.319000     0.346129   -0.170352    0.000000    0.000000
                              0.905900     0.039378    0.140382    1.000000    0.000000
                              0.364300    -0.008983    0.598684    0.000000    0.000000
                              0.128500     0.002385    0.395389    0.000000    1.000000
    5.2 B3u   1  2px         18.710000     0.014031    0.000000    0.000000
    6.2 B3u   2  2px          4.133000     0.086866    0.000000    0.000000
    7.2 B3u                   1.200000     0.290216    0.000000    0.000000
                              0.382700     0.501008    1.000000    0.000000
                              0.120900     0.343406    0.000000    1.000000
    8.2 B3u   1  3d0          1.097000     1.000000
              2 -3d0   
    9.2 B3u   1  3d2+         1.097000     1.000000
              2 -3d2+  
   10.2 B3u   1  3d0          0.318000     1.000000
              2 -3d0   
   11.2 B3u   1  3d2+         0.318000     1.000000
              2 -3d2+  
   12.2 B3u   1  4f1+         0.761000     1.000000
              2  4f1+  
   13.2 B3u   1  4f3+         0.761000     1.000000
              2  4f3+  
   14.2 B3u   3  1s          33.870000     0.006068    0.000000    0.000000
   15.2 B3u   4  1s           5.095000     0.045308    0.000000    0.000000
   16.2 B3u   5 -1s           1.159000     0.202822    0.000000    0.000000
              6 -1s           0.325800     0.503903    1.000000    0.000000
                              0.102700     0.383421    0.000000    1.000000
   17.2 B3u   3  2px          1.407000     1.000000
              4  2px   
              5  2px   
              6  2px   
   18.2 B3u   3  2pz          1.407000     1.000000
              4 -2pz   
              5 -2pz   
              6  2pz   
   19.2 B3u   3  2px          0.388000     1.000000
              4  2px   
              5  2px   
              6  2px   
   20.2 B3u   3  2pz          0.388000     1.000000
              4 -2pz   
              5 -2pz   
              6  2pz   
   21.2 B3u   3  3d0          1.057000     1.000000
              4  3d0   
              5 -3d0   
              6 -3d0   
   22.2 B3u   3  3d2+         1.057000     1.000000
              4  3d2+  
              5 -3d2+  
              6 -3d2+  
   23.2 B3u   3  3d1+         1.057000     1.000000
              4 -3d1+  
              5  3d1+  
              6 -3d1+  
    1.3 B2u   1  2py         18.710000     0.014031    0.000000    0.000000
    2.3 B2u   2  2py          4.133000     0.086866    0.000000    0.000000
    3.3 B2u                   1.200000     0.290216    0.000000    0.000000
                              0.382700     0.501008    1.000000    0.000000
                              0.120900     0.343406    0.000000    1.000000
    4.3 B2u   1  3d2-         1.097000     1.000000
              2 -3d2-  
    5.3 B2u   1  3d2-         0.318000     1.000000
              2 -3d2-  
    6.3 B2u   1  4f1-         0.761000     1.000000
              2  4f1-  
    7.3 B2u   1  4f3-         0.761000     1.000000
              2  4f3-  
    8.3 B2u   3  2py          1.407000     1.000000
              4  2py   
              5  2py   
              6  2py   
    9.3 B2u   3  2py          0.388000     1.000000
              4  2py   
              5  2py   
              6  2py   
   10.3 B2u   3  3d2-         1.057000     1.000000
              4  3d2-  
              5 -3d2-  
              6 -3d2-  
   11.3 B2u   3  3d1-         1.057000     1.000000
              4 -3d1-  
              5  3d1-  
              6 -3d1-  
    1.4 B1g   1  2py         18.710000     0.014031    0.000000    0.000000
    2.4 B1g   2 -2py          4.133000     0.086866    0.000000    0.000000
    3.4 B1g                   1.200000     0.290216    0.000000    0.000000
                              0.382700     0.501008    1.000000    0.000000
                              0.120900     0.343406    0.000000    1.000000
    4.4 B1g   1  3d2-         1.097000     1.000000
              2  3d2-  
    5.4 B1g   1  3d2-         0.318000     1.000000
              2  3d2-  
    6.4 B1g   1  4f1-         0.761000     1.000000
              2 -4f1-  
    7.4 B1g   1  4f3-         0.761000     1.000000
              2 -4f3-  
    8.4 B1g   3  2py          1.407000     1.000000
              4  2py   
              5 -2py   
              6 -2py   
    9.4 B1g   3  2py          0.388000     1.000000
              4  2py   
              5 -2py   
              6 -2py   
   10.4 B1g   3  3d2-         1.057000     1.000000
              4  3d2-  
              5  3d2-  
              6  3d2-  
   11.4 B1g   3  3d1-         1.057000     1.000000
              4 -3d1-  
              5 -3d1-  
              6  3d1-  
    1.5 B1u   1  2pz         18.710000     0.014031    0.000000    0.000000
    2.5 B1u   2  2pz          4.133000     0.086866    0.000000    0.000000
    3.5 B1u                   1.200000     0.290216    0.000000    0.000000
                              0.382700     0.501008    1.000000    0.000000
                              0.120900     0.343406    0.000000    1.000000
    4.5 B1u   1  3d1+         1.097000     1.000000
              2 -3d1+  
    5.5 B1u   1  3d1+         0.318000     1.000000
              2 -3d1+  
    6.5 B1u   1  4f0          0.761000     1.000000
              2  4f0   
    7.5 B1u   1  4f2+         0.761000     1.000000
              2  4f2+  
    8.5 B1u   3  1s          33.870000     0.006068    0.000000    0.000000
    9.5 B1u   4 -1s           5.095000     0.045308    0.000000    0.000000
   10.5 B1u   5  1s           1.159000     0.202822    0.000000    0.000000
              6 -1s           0.325800     0.503903    1.000000    0.000000
                              0.102700     0.383421    0.000000    1.000000
   11.5 B1u   3  2pz          1.407000     1.000000
              4  2pz   
              5  2pz   
              6  2pz   
   12.5 B1u   3  2px          1.407000     1.000000
              4 -2px   
              5 -2px   
              6  2px   
   13.5 B1u   3  2pz          0.388000     1.000000
              4  2pz   
              5  2pz   
              6  2pz   
   14.5 B1u   3  2px          0.388000     1.000000
              4 -2px   
              5 -2px   
              6  2px   
   15.5 B1u   3  3d1+         1.057000     1.000000
              4  3d1+  
              5 -3d1+  
              6 -3d1+  
   16.5 B1u   3  3d0          1.057000     1.000000
              4 -3d0   
              5  3d0   
              6 -3d0   
   17.5 B1u   3  3d2+         1.057000     1.000000
              4 -3d2+  
              5  3d2+  
              6 -3d2+  
    1.6 B2g   1  2pz         18.710000     0.014031    0.000000    0.000000
    2.6 B2g   2 -2pz          4.133000     0.086866    0.000000    0.000000
    3.6 B2g                   1.200000     0.290216    0.000000    0.000000
                              0.382700     0.501008    1.000000    0.000000
                              0.120900     0.343406    0.000000    1.000000
    4.6 B2g   1  3d1+         1.097000     1.000000
              2  3d1+  
    5.6 B2g   1  3d1+         0.318000     1.000000
              2  3d1+  
    6.6 B2g   1  4f0          0.761000     1.000000
              2 -4f0   
    7.6 B2g   1  4f2+         0.761000     1.000000
              2 -4f2+  
    8.6 B2g   3  1s          33.870000     0.006068    0.000000    0.000000
    9.6 B2g   4 -1s           5.095000     0.045308    0.000000    0.000000
   10.6 B2g   5 -1s           1.159000     0.202822    0.000000    0.000000
              6  1s           0.325800     0.503903    1.000000    0.000000
                              0.102700     0.383421    0.000000    1.000000
   11.6 B2g   3  2pz          1.407000     1.000000
              4  2pz   
              5 -2pz   
              6 -2pz   
   12.6 B2g   3  2px          1.407000     1.000000
              4 -2px   
              5  2px   
              6 -2px   
   13.6 B2g   3  2pz          0.388000     1.000000
              4  2pz   
              5 -2pz   
              6 -2pz   
   14.6 B2g   3  2px          0.388000     1.000000
              4 -2px   
              5  2px   
              6 -2px   
   15.6 B2g   3  3d1+         1.057000     1.000000
              4  3d1+  
              5  3d1+  
              6  3d1+  
   16.6 B2g   3  3d0          1.057000     1.000000
              4 -3d0   
              5 -3d0   
              6  3d0   
   17.6 B2g   3  3d2+         1.057000     1.000000
              4 -3d2+  
              5 -3d2+  
              6  3d2+  
    1.7 B3g   1  3d1-         1.097000     1.000000
              2  3d1-  
    2.7 B3g   1  3d1-         0.318000     1.000000
              2  3d1-  
    3.7 B3g   1  4f2-         0.761000     1.000000
              2 -4f2-  
    4.7 B3g   3  2py          1.407000     1.000000
              4 -2py   
              5  2py   
              6 -2py   
    5.7 B3g   3  2py          0.388000     1.000000
              4 -2py   
              5  2py   
              6 -2py   
    6.7 B3g   3  3d1-         1.057000     1.000000
              4  3d1-  
              5  3d1-  
              6  3d1-  
    7.7 B3g   3  3d2-         1.057000     1.000000
              4 -3d2-  
              5 -3d2-  
              6  3d2-  
    1.8 Au    1  3d1-         1.097000     1.000000
              2 -3d1-  
    2.8 Au    1  3d1-         0.318000     1.000000
              2 -3d1-  
    3.8 Au    1  4f2-         0.761000     1.000000
              2  4f2-  
    4.8 Au    3  2py          1.407000     1.000000
              4 -2py   
              5 -2py   
              6  2py   
    5.8 Au    3  2py          0.388000     1.000000
              4 -2py   
              5 -2py   
              6  2py   
    6.8 Au    3  3d1-         1.057000     1.000000
              4  3d1-  
              5 -3d1-  
              6 -3d1-  
    7.8 Au    3  3d2-         1.057000     1.000000
              4 -3d2-  
              5  3d2-  
              6 -3d2-  

 NUCLEAR CHARGE:                   16
 NUMBER OF PRIMITIVE AOS:         162
 NUMBER OF SYMMETRY AOS:          148
 NUMBER OF CONTRACTIONS:          116   (   23Ag  +   23B3u +   11B2u +   11B1g +   17B1u +   17B2g +    7B3g +    7Au  )
 NUMBER OF CORE ORBITALS:           2   (    1Ag  +    1B3u +    0B2u +    0B1g +    0B1u +    0B2g +    0B3g +    0Au  )
 NUMBER OF VALENCE ORBITALS:       12   (    3Ag  +    3B3u +    1B2u +    1B1g +    2B1u +    2B2g +    0B3g +    0Au  )


 NUCLEAR REPULSION ENERGY   33.75982481

 Eigenvalues of metric

         1 0.136E-02 0.530E-02 0.145E-01 0.224E-01 0.376E-01 0.521E-01 0.106E+00 0.124E+00
         2 0.768E-03 0.137E-02 0.150E-02 0.658E-02 0.185E-01 0.287E-01 0.589E-01 0.967E-01
         3 0.337E-01 0.115E+00 0.291E+00 0.379E+00 0.537E+00 0.600E+00 0.124E+01 0.143E+01
         4 0.189E-01 0.594E-01 0.909E-01 0.149E+00 0.271E+00 0.412E+00 0.682E+00 0.122E+01
         5 0.208E-02 0.945E-02 0.278E-01 0.430E-01 0.964E-01 0.128E+00 0.171E+00 0.333E+00
         6 0.976E-03 0.356E-02 0.785E-02 0.131E-01 0.457E-01 0.593E-01 0.827E-01 0.259E+00
         7 0.991E-01 0.326E+00 0.506E+00 0.903E+00 0.128E+01 0.177E+01 0.278E+01
         8 0.493E-01 0.199E+00 0.410E+00 0.617E+00 0.110E+01 0.129E+01 0.244E+01


 Contracted 2-electron integrals neglected if value below      1.0D-11
 AO integral compression algorithm  1   Integral accuracy      1.0D-11

     22.282 MB (compressed) written to integral file ( 59.5%)


 NUMBER OF SORTED TWO-ELECTRON INTEGRALS:    3048425.     BUFFER LENGTH:  32768
 NUMBER OF SEGMENTS:   1  SEGMENT LENGTH:    3048425      RECORD LENGTH: 524288

 Memory used in sort:       3.61 MW

 SORT1 READ     4714640. AND WROTE     3048425. INTEGRALS IN      9 RECORDS. CPU TIME:     0.14 SEC, REAL TIME:     0.18 SEC
 SORT2 READ     3048425. AND WROTE     3048425. INTEGRALS IN     85 RECORDS. CPU TIME:     0.20 SEC, REAL TIME:     0.24 SEC

 FILE SIZES:   FILE 1:    52.7 MBYTE,  FILE 4:    37.8 MBYTE,   TOTAL:     90.4 MBYTE

 OPERATOR DM      FOR CENTER  0  COORDINATES:    0.000000    0.000000    0.000000


 **********************************************************************************************************************************
 DATASETS  * FILE   NREC   LENGTH (MB)   RECORD NAMES
              1      19       45.00       500      610      700      900      950      970     1000      129      960     1100   
                                          VAR    BASINP    GEOM    SYMINP    ZMAT    AOBASIS   BASIS     P2S    ABASIS      S 
                                         1400     1410     1200     1210     1080     1600     1650     1300     1700   
                                           T        V       H0       H01     AOSYM     SMH    MOLCAS    ERIS     OPER   

 PROGRAMS   *        TOTAL       INT
 CPU TIMES  *         1.46      1.30
 REAL TIME  *         5.33 SEC
 DISK USED  *        90.82 MB
 **********************************************************************************************************************************


 PROGRAM * RHF-SCF (CLOSED SHELL)       Authors: W. Meyer, H.-J. Werner


 NUMBER OF ELECTRONS:       8+    8-
 CONVERGENCE THRESHOLDS:    1.00E-06 (Density)    1.00E-07 (Energy)
 MAX. NUMBER OF ITERATIONS:       60
 INTERPOLATION TYPE:            DIIS
 INTERPOLATION STEPS:              2 (START)      1 (STEP)
 LEVEL SHIFTS:                  0.00 (CLOSED)  0.00 (OPEN) 



 Orbital guess generated from atomic densities. Full valence occupancy:    4   4   1   1   2   2   0   0


 Molecular orbital dump at record        2100.2

 Initial occupancy:   3   2   1   0   1   1   0   0

 ITERATION    DDIFF          GRAD             ENERGY        2-EL.EN.            DIPOLE MOMENTS         DIIS   ORB.
    1      0.000D+00      0.000D+00       -78.04021226    119.174507    0.00000    0.00000    0.00000    0    start
    2      0.000D+00      0.108D-01       -78.06174224    117.489064    0.00000    0.00000    0.00000    1    diag
    3      0.163D-01      0.383D-02       -78.06411169    118.155239    0.00000    0.00000    0.00000    2    diag
    4      0.420D-02      0.105D-02       -78.06441596    118.033688    0.00000    0.00000    0.00000    3    diag
    5      0.160D-02      0.115D-03       -78.06441996    118.039995    0.00000    0.00000    0.00000    4    diag
    6      0.218D-03      0.170D-04       -78.06442006    118.039592    0.00000    0.00000    0.00000    5    diag
    7      0.397D-04      0.324D-05       -78.06442007    118.039611    0.00000    0.00000    0.00000    6    diag
    8      0.791D-05      0.412D-06       -78.06442007    118.039611    0.00000    0.00000    0.00000    7    diag
    9      0.904D-06      0.570D-07       -78.06442007    118.039612    0.00000    0.00000    0.00000    0    orth

 Final occupancy:   3   2   1   0   1   1   0   0

 !RHF STATE  1.1 Energy               -78.064420066250
 Nuclear energy                        33.75982481
 One-electron energy                 -170.84405070
 Two-electron energy                   59.01980582
 Virial quotient                       -1.00027989
 !RHF STATE  1.1 Dipole moment          0.00000000     0.00000000     0.00000000
 Dipole moment /Debye                   0.00000000     0.00000000     0.00000000

 MOLECULAR ORBITALS
 ==================

   Orb  Occ    Energy       Coefficients

                            1 1s      1 1s      1 1s      1 1s      1 2px     1 2px     1 2px     1 3d0     1 3d2+    1 3d0  
                            1 3d2+    1 4f1+    1 4f3+    2 1s      2 1s      2 1s      2 2px     2 2pz     2 2px     2 2pz  
                            2 3d0     2 3d2+    2 3d1+ 

   1.1   2   -11.2241     0.998810  0.001468  0.002147  0.000553  0.000455 -0.000820  0.000170  0.000305  0.000503  0.000368
                         -0.000195  0.000575 -0.000021  0.000414 -0.000138 -0.001201  0.000274  0.000402  0.000299 -0.000198
                         -0.000103 -0.000036 -0.000354

   2.1   2    -1.0392    -0.022517  0.882166 -0.020976 -0.166546 -0.260141  0.058951  0.081946 -0.000666  0.020421  0.006027
                          0.018292  0.011869 -0.003978  0.420321 -0.141315 -0.158111 -0.006170 -0.006325  0.006249  0.011557
                         -0.001371  0.000559 -0.000720

   3.1   2    -0.5913     0.000193 -0.070044  0.002961  0.053168  0.910613 -0.086165 -0.174878  0.020934 -0.014320  0.019740
                         -0.009283 -0.004298  0.007177  0.641116 -0.083339 -0.156548 -0.001745 -0.016047  0.003656 -0.023277
                          0.005233 -0.001171  0.002132

                            1 1s      1 1s      1 1s      1 1s      1 2px     1 2px     1 2px     1 3d0     1 3d2+    1 3d0  
                            1 3d2+    1 4f1+    1 4f3+    2 1s      2 1s      2 1s      2 2px     2 2pz     2 2px     2 2pz  
                            2 3d0     2 3d2+    2 3d1+ 

   1.2   2   -11.2222     0.999965  0.003609  0.001635  0.001778  0.002169 -0.006562 -0.002867  0.000098  0.001177 -0.002765
                          0.001294  0.001089 -0.000495  0.000481  0.003490 -0.000269  0.000266  0.000409 -0.001330 -0.000847
                         -0.000220  0.000049 -0.000311

   2.2   2    -0.7931    -0.009409  0.698981 -0.015775 -0.010965  0.356509 -0.032369 -0.094771  0.012115  0.005934  0.021563
                          0.014805  0.006585 -0.001177  0.745254 -0.161276 -0.240125 -0.006702 -0.016229  0.001208 -0.011198
                          0.003218 -0.000168  0.002056

                            1 2py     1 2py     1 2py     1 3d2-    1 3d2-    1 4f1-    1 4f3-    2 2py     2 2py     2 3d2- 
                            2 3d1- 

   1.3   2    -0.3806     0.810896 -0.014065  0.027730 -0.020743 -0.038957 -0.000590  0.010325  0.010286  0.026732 -0.003292
                         -0.003255

                            1 2pz     1 2pz     1 2pz     1 3d1+    1 3d1+    1 4f0     1 4f2+    2 1s      2 1s      2 1s   
                            2 2pz     2 2px     2 2pz     2 2px     2 3d1+    2 3d0     2 3d2+ 

   1.5   2    -0.6464     0.695933 -0.055358 -0.134277  0.006337  0.005821 -0.003312  0.006644  0.789317 -0.107421 -0.215611
                         -0.012421 -0.014029 -0.013984 -0.018867  0.005965  0.000223  0.003295

                            1 2pz     1 2pz     1 2pz     1 3d1+    1 3d1+    1 4f0     1 4f2+    2 1s      2 1s      2 1s   
                            2 2pz     2 2px     2 2pz     2 2px     2 3d1+    2 3d0     2 3d2+ 

   1.6   2    -0.5053     0.657057 -0.033070 -0.044724  0.029652  0.051290  0.004914  0.000627  0.956416 -0.151036 -0.203896
                         -0.013631 -0.010793 -0.003522 -0.008881  0.003018  0.002184  0.000501


 HOMO      1.3    -0.380567 =     -10.3558eV
 LUMO      1.4     0.156026 =       4.2457eV
 LUMO-HOMO         0.536593 =      14.6014eV


 **********************************************************************************************************************************
 DATASETS  * FILE   NREC   LENGTH (MB)   RECORD NAMES
              1      19       45.00       500      610      700      900      950      970     1000      129      960     1100   
                                          VAR    BASINP    GEOM    SYMINP    ZMAT    AOBASIS   BASIS     P2S    ABASIS      S 
                                         1400     1410     1200     1210     1080     1600     1650     1300     1700   
                                           T        V       H0       H01     AOSYM     SMH    MOLCAS    ERIS     OPER   

              2       4        2.89       700     1000      520     2100   
                                         GEOM     BASIS   MCVARS     RHF  

 PROGRAMS   *        TOTAL    HF-SCF       INT
 CPU TIMES  *         1.61      0.15      1.30
 REAL TIME  *         7.17 SEC
 DISK USED  *        90.82 MB
 **********************************************************************************************************************************


 PROGRAM * MP2 (Closed-shell)     Authors: C. Hampel, H.-J. Werner, 1991, M. Deegan, P.J. Knowles, 1992


 Convergence thresholds:  THRVAR = 1.00D-12  THRDEN = 1.00D-08

 Number of core orbitals:           2 (   1   1   0   0   0   0   0   0 )
 Number of closed-shell orbitals:   6 (   2   1   1   0   1   1   0   0 )
 Number of external orbitals:     108 (  20  21  10  11  16  16   7   7 )

 Molecular orbitals read from record     2100.2  Type=RHF/CANONICAL (state 1.1)

 Number of N-1 electron functions:               6
 Number of N-2 electron functions:              21
 Number of singly external CSFs:               103
 Number of doubly external CSFs:             28078
 Total number of CSFs:                       28182

 Length of J-op  integral file:               0.00 MB
 Length of K-op  integral file:               0.17 MB

 Integral transformation finished. Total CPU:   0.04 sec, npass=  1  Memory used:   0.11 MW

 Memory needed for MP2:                      0.01 MW

 SCS-MP2 correlation energy:           -0.339957731756   (PS=  1.200000  PT=  0.333333)
 SCS-MP2 total energy:                -78.404377798006


  Reference energy                    -78.064420066250
  MP2 singlet pair energy              -0.228261104147
  MP2 triplet pair energy              -0.106142796610
  MP2 correlation energy               -0.334403900757

 !MP2 total energy                    -78.398823967007

 KEXT needed  1 integral passes. Memory used:   0.14 MW  CPU time:      0.07 sec


 Starting Coupled-perturbed Hartree-Fock, convergence threshold= 1.0D-06

 ITER   MIC  DIIS      VAR         VARC       CPU
   1     0     1    0.34D-01    0.21D-02     0.01
   2     4     2    0.35D-03    0.11D-03     0.02
   3     3     3    0.18D-04    0.28D-05     0.03
   4     3     4    0.12D-05    0.25D-06     0.04
   5     1     5    0.77D-07    0.12D-07     0.05

 CPHF convergence reached in  5 macroiterations and   11 microiterations.   Accuracy: 7.7263D-08

 CPHF solution written to record  4100.2

 Dipole moments (unrelaxed):            0.00000000     0.00000000     0.00000000
 Orbital relaxation contribution:      -0.00000000    -0.00000000    -0.00000000
 !MP2 STATE  1.1 Dipole moment          0.00000000     0.00000000     0.00000000
 Dipole moment /Debye                   0.00000000     0.00000000     0.00000000

 CPU-time for density and lagrangian:                  0.02 sec
 CPU-time for coupled-perturbed hartree-fock:          0.05 sec

 MP2 Gradient info saved on record         5200.1


 **********************************************************************************************************************************
 DATASETS  * FILE   NREC   LENGTH (MB)   RECORD NAMES
              1      21       45.82       500      610      700      900      950      970     1000      129      960     1100   
                                          VAR    BASINP    GEOM    SYMINP    ZMAT    AOBASIS   BASIS     P2S    ABASIS      S 
                                         1400     1410     1200     1210     1080     1600     1650     1300     1700     1380   
                                           T        V       H0       H01     AOSYM     SMH    MOLCAS    ERIS     OPER     JKOP   
                                         5200   
                                          MP2  

              2       5        3.06       700     1000      520     2100     4100   
                                         GEOM     BASIS   MCVARS     RHF     CPHF   

 PROGRAMS   *        TOTAL       MP2    HF-SCF       INT
 CPU TIMES  *         1.91      0.30      0.15      1.30
 REAL TIME  *        10.57 SEC
 DISK USED  *        90.82 MB
 **********************************************************************************************************************************


 PROGRAM * OPT (Geometry optimization)     Authors: F. Eckert and H.-J. Werner


 BFGS update of hessian

 *** Long output written to logfile /scr/matheus/molpro-14431/C2H4_mp2.log ***


 Geometry optimization using default procedure for command MP2

 Geometry written to block  1 of record 700

 Making model hessian for cartesian coordinates

 Entering Rational Function Geometry Optimization

 ITER.   ENERGY(OLD)    ENERGY(NEW)      DE          GRADMAX     GRADNORM    GRADRMS     STEPMAX     STEPLEN     STEPRMS   CPU-time
   1   -78.39882397   -78.39927755    -0.00045358  0.02265128  0.02687304  0.00223942  0.03358009  0.03857897  0.01574980      2.83
   2   -78.39927755   -78.39930609    -0.00002854  0.00521574  0.00626037  0.00052170  0.01063149  0.01157319  0.00472473      5.90
   3   -78.39930609   -78.39930631    -0.00000022  0.00057042  0.00058912  0.00004909  0.00139019  0.00148320  0.00060551      8.88
   4   -78.39930631   -78.39930633    -0.00000002  0.00011766  0.00012775  0.00001065  0.00037471  0.00039479  0.00016117     11.60

 END OF GEOMETRY OPTIMIZATION.

 Current geometry (xyz format, in Angstrom)

    6
 MP2/CC-PVTZ  ENERGY=-78.39930633
 C          0.6660175601        0.0000000000        0.0000000000
 C         -0.6660175601        0.0000000000        0.0000000000
 H          1.2279269462        0.0000000000        0.9228229868
 H          1.2279269462        0.0000000000       -0.9228229868
 H         -1.2279269462        0.0000000000        0.9228229868
 H         -1.2279269462        0.0000000000       -0.9228229868

 **********************************************************************************************************************************

 Geometry written to block  1 of record 700


 **********************************************************************************************************************************
 DATASETS  * FILE   NREC   LENGTH (MB)   RECORD NAMES
              1      21       45.80       500      610      700      900      950      970     1000      129      960     1100   
                                          VAR    BASINP    GEOM    SYMINP    ZMAT    AOBASIS   BASIS     P2S    ABASIS      S 
                                         1400     1410     1200     1210     1080     1600     1650     1300     1700     1380   
                                           T        V       H0       H01     AOSYM     SMH    MOLCAS    ERIS     OPER     JKOP   
                                         5200   
                                          MP2  

              2       6        3.16       700     1000      520     2100     4100     9001   
                                         GEOM     BASIS   MCVARS     RHF     CPHF    DEN_MP2    

 PROGRAMS   *        TOTAL      OPTG       MP2    HF-SCF       INT
 CPU TIMES  *        13.51     11.60      0.30      0.15      1.30
 REAL TIME  *        48.23 SEC
 DISK USED  *        93.66 MB
 **********************************************************************************************************************************
 Molecular orbitals read from record     2100.2  Type=RHF/CANONICAL (state 1.1)
 Occupation numbers read from record     2100.2  Type=RHF/RHF (state 1.1)
 Orbital energies read from record       2100.2  Type=RHF/CANONICAL (state 1.1)
 Redundancy group numbers read from rec  2100.2  Type=RHF/RHF (state 1.1)

 MP2/cc-pVTZ//MP2/cc-pVTZ energy=    -78.399306325797

       OPTG(MP2)             MP2          HF-SCF
    -78.39930633    -78.39882397    -78.06442007
 **********************************************************************************************************************************
 Molpro calculation terminated
