
 Primary working directories    : /scr/matheus/molpro-14434/molpro.YF8vN8IIXW
 Secondary working directories  : /scr/matheus/molpro-14434/molpro.YF8vN8IIXW
 Wavefunction directory         : /home/matheus/wfu/
 Main file repository           : /scr/matheus/molpro-14434/molpro.YF8vN8IIXW/

 id        : yuriaoto

 Nodes             nprocs
 t-rex.ufabc.int.br    1

 Using customized tuning parameters: mindgm=8; mindgv=16; mindgc=1; mindgr=1; noblas=0; minvec=7
 default implementation of scratch files=df  


 Variables initialized (933), CPU time= 0.01 sec
                                                                                 !! Extra options
 gprint, orbitals=0, civec, basis
 gthresh,thrprint=0
                                                                                 !!!
 
 basis=cc-pvtz                                                                   !Basis set
 
                                                                                 ! Molecule xyz file
 geometry={
 Including file /home/matheus/RAM_tests/C2H4_mp2.xyz
 >    6
 > MP2/CC-PVTZ  ENERGY=-78.39930633
 > C          0.6660175601        0.0000000000        0.0000000000
 > C         -0.6660175601        0.0000000000        0.0000000000
 > H          1.2279269462        0.0000000000        0.9228229868
 > H          1.2279269462        0.0000000000       -0.9228229868
 > H         -1.2279269462        0.0000000000        0.9228229868
 > H         -1.2279269462        0.0000000000       -0.9228229868
 }
 
                                                                                 ! Methods
 hf
 ccsd
 
 optg
 
 Commands  initialized (760), CPU time= 0.01 sec, 617 directives.
 Default parameters read. Elapsed time= 0.04 sec

 Checking input...
 Passed
1


                                         ***  PROGRAM SYSTEM MOLPRO  ***
                                       Copyright, TTI GmbH Stuttgart, 2015
                                    Version 2019.2 linked Abr  7 2019 15:10:35


 **********************************************************************************************************************************
 LABEL *                                                                                 
  64 bit serial version                                                                  DATE: 30-Jan-24          TIME: 11:54:01  
 **********************************************************************************************************************************

 SHA1:             3a8a58c585c929645742fb5a1b7541a4ad1da699
 **********************************************************************************************************************************


 THRESHOLDS:

 ZERO    =  1.00D-12  ONEINT  =  1.00D-12  TWOINT  =  1.00D-11  PREFAC  =  1.00D-14  XXXXXX  =  1.00D-09  EORDER  =  1.00D-04
 ENERGY  =  0.00D+00  ETEST   =  0.00D+00  EDENS   =  0.00D+00  THRDEDEF=  1.00D-06  GRADIENT=  1.00D-02  STEP    =  1.00D-03
 ORBITAL =  1.00D-05  CIVEC   =  1.00D-05  COEFF   =  1.00D-04  PRINTCI =  5.00D-02  PUNCHCI =  9.90D+01  OPTGRAD =  3.00D-04
 OPTENERG=  1.00D-06  OPTSTEP =  3.00D-04  THRGRAD =  1.00D-10  COMPRESS=  1.00D-11  VARMIN  =  1.00D-07  VARMAX  =  1.00D-03
 THRDOUB =  0.00D+00  THRDIV  =  1.00D-05  THRRED  =  1.00D-07  THRPSP  =  1.00D+00  THRDC   =  1.00D-10  THRCS   =  1.00D-10
 THRNRM  =  1.00D-08  THREQ   =  0.00D+00  THRDE   =  1.00D+00  THRREF  =  1.00D-05  SPARFAC =  1.00D+00  THRDLP  =  1.00D-07
 THRDIA  =  1.00D-10  THRDLS  =  1.00D-07  THRGPS  =  0.00D+00  THRKEX  =  0.00D+00  THRDIS  =  2.00D-01  THRVAR  =  1.00D-10
 THRLOC  =  1.00D-06  THRGAP  =  1.00D-06  THRLOCT = -1.00D+00  THRGAPT = -1.00D+00  THRORB  =  1.00D-06  THRMLTP =  0.00D+00
 THRCPQCI=  1.00D-10  KEXTA   =  0.00D+00  THRCOARS=  0.00D+00  SYMTOL  =  1.00D-06  GRADTOL =  1.00D-06  THROVL  =  1.00D-08
 THRORTH =  1.00D-08  GRID    =  1.00D-06  GRIDMAX =  1.00D-03  DTMAX   =  0.00D+00  THROCCDE=  1.00D-01  THROCCDE=  1.00D-01
 THRPRINT=  0.00D+00


 Variable memory set to    8000000 words,  buffer space 

 SETTING BASIS          =    CC-PVTZ

Geometry recognized as XYZ



 Recomputing integrals since basis changed


 Using spherical harmonics

 Library entry C      S cc-pVTZ              selected for orbital group  1
 Library entry C      P cc-pVTZ              selected for orbital group  1
 Library entry C      D cc-pVTZ              selected for orbital group  1
 Library entry C      F cc-pVTZ              selected for orbital group  1
 Library entry H      S cc-pVTZ              selected for orbital group  2
 Library entry H      P cc-pVTZ              selected for orbital group  2
 Library entry H      D cc-pVTZ              selected for orbital group  2


 PROGRAM * SEWARD (Integral evaluation for generally contracted gaussian basis sets)     Author: Roland Lindh, 1990

 Geometry written to block  1 of record 700


 Point group  D2h 



 ATOMIC COORDINATES

 NR  ATOM    CHARGE       X              Y              Z

   1  C       6.00    1.258590783    0.000000000    0.000000000
   2  C       6.00   -1.258590783    0.000000000    0.000000000
   3  H       1.00    2.320445629    0.000000000    1.743882707
   4  H       1.00    2.320445629    0.000000000   -1.743882707
   5  H       1.00   -2.320445629    0.000000000    1.743882707
   6  H       1.00   -2.320445629    0.000000000   -1.743882707

 Bond lengths in Bohr (Angstrom)

 1-2  2.517181565  1-3  2.041730298  1-4  2.041730298  2-5  2.041730298  2-6  2.041730298
     ( 1.332035120)     ( 1.080437144)     ( 1.080437144)     ( 1.080437144)     ( 1.080437144)

 Bond angles

  1-2-5  121.33734694   1-2-6  121.33734694   2-1-3  121.33734694   2-1-4  121.33734694

  3-1-4  117.32530612   5-2-6  117.32530612


 BASIS DATA

   Nr Sym  Nuc  Type         Exponents   Contraction coefficients

    1.1 Ag    1  1s        8236.000000     0.000531   -0.000113    0.000000    0.000000
    2.1 Ag    2  1s        1235.000000     0.004108   -0.000878    0.000000    0.000000
    3.1 Ag                  280.800000     0.021087   -0.004540    0.000000    0.000000
    4.1 Ag                   79.270000     0.081853   -0.018133    0.000000    0.000000
                             25.590000     0.234817   -0.055760    0.000000    0.000000
                              8.997000     0.434401   -0.126895    0.000000    0.000000
                              3.319000     0.346129   -0.170352    0.000000    0.000000
                              0.905900     0.039378    0.140382    1.000000    0.000000
                              0.364300    -0.008983    0.598684    0.000000    0.000000
                              0.128500     0.002385    0.395389    0.000000    1.000000
    5.1 Ag    1  2px         18.710000     0.014031    0.000000    0.000000
    6.1 Ag    2 -2px          4.133000     0.086866    0.000000    0.000000
    7.1 Ag                    1.200000     0.290216    0.000000    0.000000
                              0.382700     0.501008    1.000000    0.000000
                              0.120900     0.343406    0.000000    1.000000
    8.1 Ag    1  3d0          1.097000     1.000000
              2  3d0   
    9.1 Ag    1  3d2+         1.097000     1.000000
              2  3d2+  
   10.1 Ag    1  3d0          0.318000     1.000000
              2  3d0   
   11.1 Ag    1  3d2+         0.318000     1.000000
              2  3d2+  
   12.1 Ag    1  4f1+         0.761000     1.000000
              2 -4f1+  
   13.1 Ag    1  4f3+         0.761000     1.000000
              2 -4f3+  
   14.1 Ag    3  1s          33.870000     0.006068    0.000000    0.000000
   15.1 Ag    4  1s           5.095000     0.045308    0.000000    0.000000
   16.1 Ag    5  1s           1.159000     0.202822    0.000000    0.000000
              6  1s           0.325800     0.503903    1.000000    0.000000
                              0.102700     0.383421    0.000000    1.000000
   17.1 Ag    3  2px          1.407000     1.000000
              4  2px   
              5 -2px   
              6 -2px   
   18.1 Ag    3  2pz          1.407000     1.000000
              4 -2pz   
              5  2pz   
              6 -2pz   
   19.1 Ag    3  2px          0.388000     1.000000
              4  2px   
              5 -2px   
              6 -2px   
   20.1 Ag    3  2pz          0.388000     1.000000
              4 -2pz   
              5  2pz   
              6 -2pz   
   21.1 Ag    3  3d0          1.057000     1.000000
              4  3d0   
              5  3d0   
              6  3d0   
   22.1 Ag    3  3d2+         1.057000     1.000000
              4  3d2+  
              5  3d2+  
              6  3d2+  
   23.1 Ag    3  3d1+         1.057000     1.000000
              4 -3d1+  
              5 -3d1+  
              6  3d1+  
    1.2 B3u   1  1s        8236.000000     0.000531   -0.000113    0.000000    0.000000
    2.2 B3u   2 -1s        1235.000000     0.004108   -0.000878    0.000000    0.000000
    3.2 B3u                 280.800000     0.021087   -0.004540    0.000000    0.000000
    4.2 B3u                  79.270000     0.081853   -0.018133    0.000000    0.000000
                             25.590000     0.234817   -0.055760    0.000000    0.000000
                              8.997000     0.434401   -0.126895    0.000000    0.000000
                              3.319000     0.346129   -0.170352    0.000000    0.000000
                              0.905900     0.039378    0.140382    1.000000    0.000000
                              0.364300    -0.008983    0.598684    0.000000    0.000000
                              0.128500     0.002385    0.395389    0.000000    1.000000
    5.2 B3u   1  2px         18.710000     0.014031    0.000000    0.000000
    6.2 B3u   2  2px          4.133000     0.086866    0.000000    0.000000
    7.2 B3u                   1.200000     0.290216    0.000000    0.000000
                              0.382700     0.501008    1.000000    0.000000
                              0.120900     0.343406    0.000000    1.000000
    8.2 B3u   1  3d0          1.097000     1.000000
              2 -3d0   
    9.2 B3u   1  3d2+         1.097000     1.000000
              2 -3d2+  
   10.2 B3u   1  3d0          0.318000     1.000000
              2 -3d0   
   11.2 B3u   1  3d2+         0.318000     1.000000
              2 -3d2+  
   12.2 B3u   1  4f1+         0.761000     1.000000
              2  4f1+  
   13.2 B3u   1  4f3+         0.761000     1.000000
              2  4f3+  
   14.2 B3u   3  1s          33.870000     0.006068    0.000000    0.000000
   15.2 B3u   4  1s           5.095000     0.045308    0.000000    0.000000
   16.2 B3u   5 -1s           1.159000     0.202822    0.000000    0.000000
              6 -1s           0.325800     0.503903    1.000000    0.000000
                              0.102700     0.383421    0.000000    1.000000
   17.2 B3u   3  2px          1.407000     1.000000
              4  2px   
              5  2px   
              6  2px   
   18.2 B3u   3  2pz          1.407000     1.000000
              4 -2pz   
              5 -2pz   
              6  2pz   
   19.2 B3u   3  2px          0.388000     1.000000
              4  2px   
              5  2px   
              6  2px   
   20.2 B3u   3  2pz          0.388000     1.000000
              4 -2pz   
              5 -2pz   
              6  2pz   
   21.2 B3u   3  3d0          1.057000     1.000000
              4  3d0   
              5 -3d0   
              6 -3d0   
   22.2 B3u   3  3d2+         1.057000     1.000000
              4  3d2+  
              5 -3d2+  
              6 -3d2+  
   23.2 B3u   3  3d1+         1.057000     1.000000
              4 -3d1+  
              5  3d1+  
              6 -3d1+  
    1.3 B2u   1  2py         18.710000     0.014031    0.000000    0.000000
    2.3 B2u   2  2py          4.133000     0.086866    0.000000    0.000000
    3.3 B2u                   1.200000     0.290216    0.000000    0.000000
                              0.382700     0.501008    1.000000    0.000000
                              0.120900     0.343406    0.000000    1.000000
    4.3 B2u   1  3d2-         1.097000     1.000000
              2 -3d2-  
    5.3 B2u   1  3d2-         0.318000     1.000000
              2 -3d2-  
    6.3 B2u   1  4f1-         0.761000     1.000000
              2  4f1-  
    7.3 B2u   1  4f3-         0.761000     1.000000
              2  4f3-  
    8.3 B2u   3  2py          1.407000     1.000000
              4  2py   
              5  2py   
              6  2py   
    9.3 B2u   3  2py          0.388000     1.000000
              4  2py   
              5  2py   
              6  2py   
   10.3 B2u   3  3d2-         1.057000     1.000000
              4  3d2-  
              5 -3d2-  
              6 -3d2-  
   11.3 B2u   3  3d1-         1.057000     1.000000
              4 -3d1-  
              5  3d1-  
              6 -3d1-  
    1.4 B1g   1  2py         18.710000     0.014031    0.000000    0.000000
    2.4 B1g   2 -2py          4.133000     0.086866    0.000000    0.000000
    3.4 B1g                   1.200000     0.290216    0.000000    0.000000
                              0.382700     0.501008    1.000000    0.000000
                              0.120900     0.343406    0.000000    1.000000
    4.4 B1g   1  3d2-         1.097000     1.000000
              2  3d2-  
    5.4 B1g   1  3d2-         0.318000     1.000000
              2  3d2-  
    6.4 B1g   1  4f1-         0.761000     1.000000
              2 -4f1-  
    7.4 B1g   1  4f3-         0.761000     1.000000
              2 -4f3-  
    8.4 B1g   3  2py          1.407000     1.000000
              4  2py   
              5 -2py   
              6 -2py   
    9.4 B1g   3  2py          0.388000     1.000000
              4  2py   
              5 -2py   
              6 -2py   
   10.4 B1g   3  3d2-         1.057000     1.000000
              4  3d2-  
              5  3d2-  
              6  3d2-  
   11.4 B1g   3  3d1-         1.057000     1.000000
              4 -3d1-  
              5 -3d1-  
              6  3d1-  
    1.5 B1u   1  2pz         18.710000     0.014031    0.000000    0.000000
    2.5 B1u   2  2pz          4.133000     0.086866    0.000000    0.000000
    3.5 B1u                   1.200000     0.290216    0.000000    0.000000
                              0.382700     0.501008    1.000000    0.000000
                              0.120900     0.343406    0.000000    1.000000
    4.5 B1u   1  3d1+         1.097000     1.000000
              2 -3d1+  
    5.5 B1u   1  3d1+         0.318000     1.000000
              2 -3d1+  
    6.5 B1u   1  4f0          0.761000     1.000000
              2  4f0   
    7.5 B1u   1  4f2+         0.761000     1.000000
              2  4f2+  
    8.5 B1u   3  1s          33.870000     0.006068    0.000000    0.000000
    9.5 B1u   4 -1s           5.095000     0.045308    0.000000    0.000000
   10.5 B1u   5  1s           1.159000     0.202822    0.000000    0.000000
              6 -1s           0.325800     0.503903    1.000000    0.000000
                              0.102700     0.383421    0.000000    1.000000
   11.5 B1u   3  2pz          1.407000     1.000000
              4  2pz   
              5  2pz   
              6  2pz   
   12.5 B1u   3  2px          1.407000     1.000000
              4 -2px   
              5 -2px   
              6  2px   
   13.5 B1u   3  2pz          0.388000     1.000000
              4  2pz   
              5  2pz   
              6  2pz   
   14.5 B1u   3  2px          0.388000     1.000000
              4 -2px   
              5 -2px   
              6  2px   
   15.5 B1u   3  3d1+         1.057000     1.000000
              4  3d1+  
              5 -3d1+  
              6 -3d1+  
   16.5 B1u   3  3d0          1.057000     1.000000
              4 -3d0   
              5  3d0   
              6 -3d0   
   17.5 B1u   3  3d2+         1.057000     1.000000
              4 -3d2+  
              5  3d2+  
              6 -3d2+  
    1.6 B2g   1  2pz         18.710000     0.014031    0.000000    0.000000
    2.6 B2g   2 -2pz          4.133000     0.086866    0.000000    0.000000
    3.6 B2g                   1.200000     0.290216    0.000000    0.000000
                              0.382700     0.501008    1.000000    0.000000
                              0.120900     0.343406    0.000000    1.000000
    4.6 B2g   1  3d1+         1.097000     1.000000
              2  3d1+  
    5.6 B2g   1  3d1+         0.318000     1.000000
              2  3d1+  
    6.6 B2g   1  4f0          0.761000     1.000000
              2 -4f0   
    7.6 B2g   1  4f2+         0.761000     1.000000
              2 -4f2+  
    8.6 B2g   3  1s          33.870000     0.006068    0.000000    0.000000
    9.6 B2g   4 -1s           5.095000     0.045308    0.000000    0.000000
   10.6 B2g   5 -1s           1.159000     0.202822    0.000000    0.000000
              6  1s           0.325800     0.503903    1.000000    0.000000
                              0.102700     0.383421    0.000000    1.000000
   11.6 B2g   3  2pz          1.407000     1.000000
              4  2pz   
              5 -2pz   
              6 -2pz   
   12.6 B2g   3  2px          1.407000     1.000000
              4 -2px   
              5  2px   
              6 -2px   
   13.6 B2g   3  2pz          0.388000     1.000000
              4  2pz   
              5 -2pz   
              6 -2pz   
   14.6 B2g   3  2px          0.388000     1.000000
              4 -2px   
              5  2px   
              6 -2px   
   15.6 B2g   3  3d1+         1.057000     1.000000
              4  3d1+  
              5  3d1+  
              6  3d1+  
   16.6 B2g   3  3d0          1.057000     1.000000
              4 -3d0   
              5 -3d0   
              6  3d0   
   17.6 B2g   3  3d2+         1.057000     1.000000
              4 -3d2+  
              5 -3d2+  
              6  3d2+  
    1.7 B3g   1  3d1-         1.097000     1.000000
              2  3d1-  
    2.7 B3g   1  3d1-         0.318000     1.000000
              2  3d1-  
    3.7 B3g   1  4f2-         0.761000     1.000000
              2 -4f2-  
    4.7 B3g   3  2py          1.407000     1.000000
              4 -2py   
              5  2py   
              6 -2py   
    5.7 B3g   3  2py          0.388000     1.000000
              4 -2py   
              5  2py   
              6 -2py   
    6.7 B3g   3  3d1-         1.057000     1.000000
              4  3d1-  
              5  3d1-  
              6  3d1-  
    7.7 B3g   3  3d2-         1.057000     1.000000
              4 -3d2-  
              5 -3d2-  
              6  3d2-  
    1.8 Au    1  3d1-         1.097000     1.000000
              2 -3d1-  
    2.8 Au    1  3d1-         0.318000     1.000000
              2 -3d1-  
    3.8 Au    1  4f2-         0.761000     1.000000
              2  4f2-  
    4.8 Au    3  2py          1.407000     1.000000
              4 -2py   
              5 -2py   
              6  2py   
    5.8 Au    3  2py          0.388000     1.000000
              4 -2py   
              5 -2py   
              6  2py   
    6.8 Au    3  3d1-         1.057000     1.000000
              4  3d1-  
              5 -3d1-  
              6 -3d1-  
    7.8 Au    3  3d2-         1.057000     1.000000
              4 -3d2-  
              5  3d2-  
              6 -3d2-  

 NUCLEAR CHARGE:                   16
 NUMBER OF PRIMITIVE AOS:         162
 NUMBER OF SYMMETRY AOS:          148
 NUMBER OF CONTRACTIONS:          116   (   23Ag  +   23B3u +   11B2u +   11B1g +   17B1u +   17B2g +    7B3g +    7Au  )
 NUMBER OF CORE ORBITALS:           2   (    1Ag  +    1B3u +    0B2u +    0B1g +    0B1u +    0B2g +    0B3g +    0Au  )
 NUMBER OF VALENCE ORBITALS:       12   (    3Ag  +    3B3u +    1B2u +    1B1g +    2B1u +    2B2g +    0B3g +    0Au  )


 NUCLEAR REPULSION ENERGY   33.43354326

 Eigenvalues of metric

         1 0.139E-02 0.543E-02 0.146E-01 0.237E-01 0.389E-01 0.528E-01 0.109E+00 0.126E+00
         2 0.803E-03 0.147E-02 0.155E-02 0.683E-02 0.188E-01 0.298E-01 0.613E-01 0.977E-01
         3 0.340E-01 0.117E+00 0.292E+00 0.386E+00 0.535E+00 0.610E+00 0.124E+01 0.143E+01
         4 0.198E-01 0.609E-01 0.927E-01 0.156E+00 0.280E+00 0.416E+00 0.693E+00 0.122E+01
         5 0.212E-02 0.964E-02 0.281E-01 0.440E-01 0.974E-01 0.131E+00 0.178E+00 0.333E+00
         6 0.102E-02 0.377E-02 0.847E-02 0.133E-01 0.467E-01 0.625E-01 0.841E-01 0.265E+00
         7 0.100E+00 0.333E+00 0.505E+00 0.903E+00 0.128E+01 0.175E+01 0.277E+01
         8 0.508E-01 0.208E+00 0.413E+00 0.628E+00 0.110E+01 0.129E+01 0.244E+01


 Contracted 2-electron integrals neglected if value below      1.0D-11
 AO integral compression algorithm  1   Integral accuracy      1.0D-11

     22.282 MB (compressed) written to integral file ( 59.4%)


 NUMBER OF SORTED TWO-ELECTRON INTEGRALS:    3048425.     BUFFER LENGTH:  32768
 NUMBER OF SEGMENTS:   1  SEGMENT LENGTH:    3048425      RECORD LENGTH: 524288

 Memory used in sort:       3.61 MW

 SORT1 READ     4714640. AND WROTE     3048425. INTEGRALS IN      9 RECORDS. CPU TIME:     0.12 SEC, REAL TIME:     0.18 SEC
 SORT2 READ     3048425. AND WROTE     3048425. INTEGRALS IN     85 RECORDS. CPU TIME:     0.23 SEC, REAL TIME:     0.26 SEC

 FILE SIZES:   FILE 1:    52.7 MBYTE,  FILE 4:    37.8 MBYTE,   TOTAL:     90.4 MBYTE

 OPERATOR DM      FOR CENTER  0  COORDINATES:    0.000000    0.000000    0.000000


 **********************************************************************************************************************************
 DATASETS  * FILE   NREC   LENGTH (MB)   RECORD NAMES
              1      19       44.98       500      610      700      900      950      970     1000      129      960     1100   
                                          VAR    BASINP    GEOM    SYMINP    ZMAT    AOBASIS   BASIS     P2S    ABASIS      S 
                                         1400     1410     1200     1210     1080     1600     1650     1300     1700   
                                           T        V       H0       H01     AOSYM     SMH    MOLCAS    ERIS     OPER   

 PROGRAMS   *        TOTAL       INT
 CPU TIMES  *         1.29      1.20
 REAL TIME  *         1.92 SEC
 DISK USED  *        90.82 MB
 **********************************************************************************************************************************


 PROGRAM * RHF-SCF (CLOSED SHELL)       Authors: W. Meyer, H.-J. Werner


 NUMBER OF ELECTRONS:       8+    8-
 CONVERGENCE THRESHOLDS:    1.00E-06 (Density)    1.00E-07 (Energy)
 MAX. NUMBER OF ITERATIONS:       60
 INTERPOLATION TYPE:            DIIS
 INTERPOLATION STEPS:              2 (START)      1 (STEP)
 LEVEL SHIFTS:                  0.00 (CLOSED)  0.00 (OPEN) 



 Orbital guess generated from atomic densities. Full valence occupancy:    4   4   1   1   2   2   0   0


 Molecular orbital dump at record        2100.2

 Initial occupancy:   3   2   1   0   1   1   0   0

 ITERATION    DDIFF          GRAD             ENERGY        2-EL.EN.            DIPOLE MOMENTS         DIIS   ORB.
    1      0.000D+00      0.000D+00       -78.04059633    118.459824    0.00000    0.00000    0.00000    0    start
    2      0.000D+00      0.104D-01       -78.06137457    116.903230    0.00000    0.00000    0.00000    1    diag
    3      0.157D-01      0.365D-02       -78.06359755    117.533670    0.00000    0.00000    0.00000    2    diag
    4      0.403D-02      0.104D-02       -78.06389278    117.408927    0.00000    0.00000    0.00000    3    diag
    5      0.156D-02      0.115D-03       -78.06389673    117.415410    0.00000    0.00000    0.00000    4    diag
    6      0.213D-03      0.169D-04       -78.06389683    117.415007    0.00000    0.00000    0.00000    5    diag
    7      0.385D-04      0.328D-05       -78.06389684    117.415027    0.00000    0.00000    0.00000    6    diag
    8      0.780D-05      0.418D-06       -78.06389684    117.415027    0.00000    0.00000    0.00000    7    diag
    9      0.921D-06      0.582D-07       -78.06389684    117.415027    0.00000    0.00000    0.00000    0    orth

 Final occupancy:   3   2   1   0   1   1   0   0

 !RHF STATE  1.1 Energy               -78.063896837827
 Nuclear energy                        33.43354326
 One-electron energy                 -170.20495382
 Two-electron energy                   58.70751372
 Virial quotient                       -1.00151322
 !RHF STATE  1.1 Dipole moment          0.00000000     0.00000000     0.00000000
 Dipole moment /Debye                   0.00000000     0.00000000     0.00000000

 MOLECULAR ORBITALS
 ==================

   Orb  Occ    Energy       Coefficients

                            1 1s      1 1s      1 1s      1 1s      1 2px     1 2px     1 2px     1 3d0     1 3d2+    1 3d0  
                            1 3d2+    1 4f1+    1 4f3+    2 1s      2 1s      2 1s      2 2px     2 2pz     2 2px     2 2pz  
                            2 3d0     2 3d2+    2 3d1+ 

   1.1   2   -11.2290     0.998902  0.001490  0.002037  0.000563  0.000427 -0.000751  0.000178  0.000313  0.000470  0.000344
                         -0.000170  0.000534  0.000007  0.000543 -0.000252 -0.001251  0.000259  0.000389  0.000290 -0.000150
                         -0.000120 -0.000044 -0.000351

   2.1   2    -1.0332    -0.021903  0.878261 -0.020487 -0.164118 -0.250035  0.054004  0.078002 -0.000372  0.019895  0.005767
                          0.017847  0.011756 -0.003923  0.421811 -0.137240 -0.157653 -0.006142 -0.006470  0.005289  0.009907
                         -0.001270  0.000603 -0.000606

   3.1   2    -0.5862    -0.000090 -0.070549  0.003018  0.051246  0.904571 -0.080860 -0.170194  0.020897 -0.014114  0.020311
                         -0.009453 -0.004171  0.007179  0.634841 -0.082182 -0.152933 -0.001531 -0.015779  0.004299 -0.022633
                          0.005202 -0.001234  0.001978

                            1 1s      1 1s      1 1s      1 1s      1 2px     1 2px     1 2px     1 3d0     1 3d2+    1 3d0  
                            1 3d2+    1 4f1+    1 4f3+    2 1s      2 1s      2 1s      2 2px     2 2pz     2 2px     2 2pz  
                            2 3d0     2 3d2+    2 3d1+ 

   1.2   2   -11.2272     0.999929  0.003317  0.001495  0.001846  0.002178 -0.006021 -0.002761  0.000130  0.001107 -0.002564
                          0.001230  0.001075 -0.000485  0.000477  0.003143 -0.000312  0.000260  0.000415 -0.001229 -0.000766
                         -0.000235  0.000052 -0.000311

   2.2   2    -0.7921    -0.009346  0.701658 -0.015661 -0.013844  0.352624 -0.030326 -0.092340  0.012308  0.005728  0.022053
                          0.014266  0.006816 -0.001203  0.739327 -0.158881 -0.237626 -0.006545 -0.015992  0.001316 -0.011270
                          0.003164 -0.000142  0.001971

                            1 2py     1 2py     1 2py     1 3d2-    1 3d2-    1 4f1-    1 4f3-    2 2py     2 2py     2 3d2- 
                            2 3d1- 

   1.3   2    -0.3764     0.807659 -0.013159  0.033446 -0.020029 -0.038900 -0.000526  0.010183  0.010202  0.026822 -0.003225
                         -0.003278

                            1 2pz     1 2pz     1 2pz     1 3d1+    1 3d1+    1 4f0     1 4f2+    2 1s      2 1s      2 1s   
                            2 2pz     2 2px     2 2pz     2 2px     2 3d1+    2 3d0     2 3d2+ 

   1.5   2    -0.6436     0.692752 -0.053889 -0.132386  0.006796  0.005945 -0.003074  0.006477  0.788467 -0.105783 -0.213973
                         -0.012464 -0.013708 -0.014405 -0.018644  0.005943  0.000368  0.003208

                            1 2pz     1 2pz     1 2pz     1 3d1+    1 3d1+    1 4f0     1 4f2+    2 1s      2 1s      2 1s   
                            2 2pz     2 2px     2 2pz     2 2px     2 3d1+    2 3d0     2 3d2+ 

   1.6   2    -0.5073     0.657097 -0.033050 -0.046517  0.029103  0.050897  0.004761  0.000790  0.950701 -0.148389 -0.202970
                         -0.013637 -0.010697 -0.003937 -0.009223  0.003121  0.002191  0.000563


 HOMO      1.3    -0.376416 =     -10.2428eV
 LUMO      1.4     0.152214 =       4.1419eV
 LUMO-HOMO         0.528629 =      14.3847eV


 **********************************************************************************************************************************
 DATASETS  * FILE   NREC   LENGTH (MB)   RECORD NAMES
              1      19       44.98       500      610      700      900      950      970     1000      129      960     1100   
                                          VAR    BASINP    GEOM    SYMINP    ZMAT    AOBASIS   BASIS     P2S    ABASIS      S 
                                         1400     1410     1200     1210     1080     1600     1650     1300     1700   
                                           T        V       H0       H01     AOSYM     SMH    MOLCAS    ERIS     OPER   

              2       4        2.89       700     1000      520     2100   
                                         GEOM     BASIS   MCVARS     RHF  

 PROGRAMS   *        TOTAL    HF-SCF       INT
 CPU TIMES  *         1.52      0.23      1.20
 REAL TIME  *         2.55 SEC
 DISK USED  *        90.82 MB
 **********************************************************************************************************************************


 PROGRAM * CCSD (Closed-shell coupled cluster)     Authors: C. Hampel, H.-J. Werner, 1991, M. Deegan, P.J. Knowles, 1992


 Convergence thresholds:  THRVAR = 1.00D-12  THRDEN = 1.00D-08

 Using ITF CCSD gradient implementation

 Number of core orbitals:           2 (   1   1   0   0   0   0   0   0 )
 Number of closed-shell orbitals:   6 (   2   1   1   0   1   1   0   0 )
 Number of external orbitals:     108 (  20  21  10  11  16  16   7   7 )

 Molecular orbitals read from record     2100.2  Type=RHF/CANONICAL (state 1.1)

 Integral transformation finished. Total CPU:   0.07 sec, npass=  1  Memory used:   0.48 MW
  Reference energy:                   -78.063896837827

  MP2 correlation energy:              -0.335409498249
  MP2 total energy:                   -78.399306336076

 ITER.      SQ.NORM     CORR.ENERGY   TOTAL ENERGY   ENERGY CHANGE        DEN1      VAR(S)    VAR(P)  DIIS     TIME
   1      1.12490692    -0.35764334   -78.42154018    -0.02223384    -0.01241471  1.47e-03  1.94e-03  1  1     0.14
   2      1.13477182    -0.35952244   -78.42341928    -0.00187910    -0.00856048  1.66e-05  4.13e-04  2  2     0.26
   3      1.13844309    -0.35988841   -78.42378525    -0.00036598    -0.00181613  1.06e-05  7.80e-05  3  3     0.39
   4      1.14089932    -0.35992918   -78.42382601    -0.00004076    -0.00120826  1.60e-07  1.51e-05  4  4     0.52
   5      1.14199217    -0.35991675   -78.42381359     0.00001243    -0.00036586  6.57e-08  1.46e-06  5  5     0.64
   6      1.14234467    -0.35990198   -78.42379882     0.00001477    -0.00010474  1.11e-09  6.83e-08  6  0     0.76
   7      1.14240045    -0.35989732   -78.42379416     0.00000466    -0.00001530  9.56e-11  2.31e-09  6  1     0.86
   8      1.14240586    -0.35989658   -78.42379342     0.00000074    -0.00000137  3.08e-12  1.26e-10  6  2     0.96
   9      1.14240644    -0.35989649   -78.42379333     0.00000009    -0.00000016  4.20e-13  8.28e-12  6  3     1.06
  10      1.14240666    -0.35989649   -78.42379332     0.00000001     0.00000001  1.12e-14  4.02e-13           1.17

 Norm of t1 vector:      0.05234087     S-energy:      0.00000000   T1 diagnostic:  0.01068404

 Time per iteration:                      0.12 sec

 RESULTS
 =======

  Reference energy:                   -78.063896837827
  CCSD correlation energy:             -0.359896485525
 !CCSD total energy:                  -78.423793323352

 Starting CP-CCSD iterations.   Author: W. Gyorffy (2012)

         ITER.       NRM1          NRM2     VAR1+VAR2       CPU  DIIS
 iter.     1     0.00201820     0.36533967 7.91312455e-04      0.12  1  1
 iter.     2     0.00183149     0.36271657 2.27246408e-05      0.25  2  2
 iter.     3     0.00175445     0.36216385 2.64270501e-06      0.36  3  3
 iter.     4     0.00171840     0.36205038 4.03832961e-07      0.48  4  4
 iter.     5     0.00170230     0.36204728 5.71030357e-08      0.59  5  5
 iter.     6     0.00169766     0.36206252 4.29537051e-09      0.70  6  0
 iter.     7     0.00169676     0.36206949 2.06464384e-10      0.81  6  1
 iter.     8     0.00169681     0.36207139 1.09756432e-11      0.92  6  2
 iter.     9     0.00169684     0.36207178 9.18061890e-13      1.02


 Time per iteration:                      0.11 sec


 Starting Coupled-perturbed Hartree-Fock, convergence threshold= 1.0D-06

 ITER   MIC  DIIS      VAR         VARC       CPU
   1     0     1    0.35D-02    0.15D-02     0.01
   2     3     2    0.20D-03    0.21D-04     0.02
   3     4     3    0.62D-05    0.15D-05     0.02
   4     2     4    0.42D-06    0.26D-07     0.03

 CPHF convergence reached in  4 macroiterations and    9 microiterations.   Accuracy: 4.2143D-07

 CPHF solution written to record  8500.2

 Dipole moments (unrelaxed):            0.00000000     0.00000000     0.00000000
 Orbital relaxation contribution:      -0.00000000    -0.00000000    -0.00000000
 !CCSD STATE  1.1 Dipole moment         0.00000000     0.00000000     0.00000000
 Dipole moment /Debye                   0.00000000     0.00000000     0.00000000

 CPU-time for coupled-perturbed hartree-fock:          0.03 sec

 Number of N-1 electron functions:               6
 Number of N-2 electron functions:              21
 Number of singly external CSFs:               103
 Number of doubly external CSFs:             28078
 Total number of CSFs:                       28182

 CCSD Gradient info saved on record        55555.1




 **********************************************************************************************************************************
 DATASETS  * FILE   NREC   LENGTH (MB)   RECORD NAMES
              1      21       52.65       500      610      700      900      950      970     1000      129      960     1100   
                                          VAR    BASINP    GEOM    SYMINP    ZMAT    AOBASIS   BASIS     P2S    ABASIS      S 
                                         1400     1410     1200     1210     1080     1600     1650     1300     1700     1380   
                                           T        V       H0       H01     AOSYM     SMH    MOLCAS    ERIS     OPER     JKOP   
                                        55555   
                                         CCSD   

              2       5        3.06       700     1000      520     2100     8500   
                                         GEOM     BASIS   MCVARS     RHF     CPHF   

 PROGRAMS   *        TOTAL      CCSD    HF-SCF       INT
 CPU TIMES  *         4.54      3.01      0.23      1.20
 REAL TIME  *         8.32 SEC
 DISK USED  *        90.82 MB
 **********************************************************************************************************************************


 PROGRAM * OPT (Geometry optimization)     Authors: F. Eckert and H.-J. Werner


 BFGS update of hessian

 *** Long output written to logfile /scr/matheus/molpro-14434/C2H4_ccsd.log ***


 Geometry optimization using default procedure for command CCSD

 Geometry written to block  1 of record 700

 Making model hessian for cartesian coordinates

 Entering Rational Function Geometry Optimization

 ITER.   ENERGY(OLD)    ENERGY(NEW)      DE          GRADMAX     GRADNORM    GRADRMS     STEPMAX     STEPLEN     STEPRMS   CPU-time
   1   -78.42379332   -78.42380168    -0.00000835  0.00332656  0.00347777  0.00028981  0.00820057  0.00849906  0.00346973      5.60
   2   -78.42380168   -78.42380258    -0.00000090  0.00126109  0.00128653  0.00010721  0.00292798  0.00311953  0.00127354     11.68
   3   -78.42380258   -78.42380258    -0.00000000  0.00005103  0.00005276  0.00000440  0.00008249  0.00008967  0.00003661     17.53

 END OF GEOMETRY OPTIMIZATION.

 Current geometry (xyz format, in Angstrom)

    6
 CCSD/CC-PVTZ  ENERGY=-78.42380258
 C          0.6655839663        0.0000000000        0.0000000000
 C         -0.6655839663        0.0000000000        0.0000000000
 H          1.2308653904        0.0000000000        0.9220622226
 H          1.2308653904        0.0000000000       -0.9220622226
 H         -1.2308653904        0.0000000000        0.9220622226
 H         -1.2308653904        0.0000000000       -0.9220622226

 **********************************************************************************************************************************

 Geometry written to block  1 of record 700


 **********************************************************************************************************************************
 DATASETS  * FILE   NREC   LENGTH (MB)   RECORD NAMES
              1      21       52.65       500      610      700      900      950      970     1000      129      960     1100   
                                          VAR    BASINP    GEOM    SYMINP    ZMAT    AOBASIS   BASIS     P2S    ABASIS      S 
                                         1400     1410     1200     1210     1080     1600     1650     1300     1700     1380   
                                           T        V       H0       H01     AOSYM     SMH    MOLCAS    ERIS     OPER     JKOP   
                                        55555   
                                         CCSD   

              2       6        3.16       700     1000      520     2100     8500     9001   
                                         GEOM     BASIS   MCVARS     RHF     CPHF    DEN_MP2    

 PROGRAMS   *        TOTAL      OPTG      CCSD    HF-SCF       INT
 CPU TIMES  *        22.07     17.53      3.01      0.23      1.20
 REAL TIME  *        42.37 SEC
 DISK USED  *        93.66 MB
 **********************************************************************************************************************************
 Molecular orbitals read from record     2100.2  Type=RHF/CANONICAL (state 1.1)
 Occupation numbers read from record     2100.2  Type=RHF/RHF (state 1.1)
 Orbital energies read from record       2100.2  Type=RHF/CANONICAL (state 1.1)
 Redundancy group numbers read from rec  2100.2  Type=RHF/RHF (state 1.1)

 CCSD/cc-pVTZ//CCSD/cc-pVTZ energy=    -78.423802580090

      OPTG(CCSD)            CCSD          HF-SCF
    -78.42380258    -78.42379332    -78.06389684
 **********************************************************************************************************************************
 Molpro calculation terminated
