
 Primary working directories    : /scr/matheus/molpro-14430/molpro.kP0MvM7jmq
 Secondary working directories  : /scr/matheus/molpro-14430/molpro.kP0MvM7jmq
 Wavefunction directory         : /home/matheus/wfu/
 Main file repository           : /scr/matheus/molpro-14430/molpro.kP0MvM7jmq/

 id        : yuriaoto

 Nodes             nprocs
 t-rex.ufabc.int.br    1

 Using customized tuning parameters: mindgm=8; mindgv=16; mindgc=1; mindgr=1; noblas=0; minvec=7
 default implementation of scratch files=df  


 Variables initialized (933), CPU time= 0.00 sec
                                                                                 !! Extra options
 gprint, orbitals=0, civec, basis
 gthresh,thrprint=0
                                                                                 !!!
 
 basis=cc-pvtz                                                                   !Basis set
 
                                                                                 ! Molecule xyz file
 geometry={
 Including file /home/matheus/RAM_tests/C2H4.xyz
 >6
 >C  0.65  0.00  0.00
 >C -0.65  0.00  0.00
 >H  1.10  0.00  1.00
 >H  1.10  0.00 -1.00
 >H -1.10  0.00  1.00
 >H -1.10  0.00 -1.00
 }
 
                                                                                 ! Methods
 hf
 optg
 
 Commands  initialized (760), CPU time= 0.01 sec, 617 directives.
 Default parameters read. Elapsed time= 0.06 sec

 Checking input...
 Passed
1


                                         ***  PROGRAM SYSTEM MOLPRO  ***
                                       Copyright, TTI GmbH Stuttgart, 2015
                                    Version 2019.2 linked Abr  7 2019 15:10:35


 **********************************************************************************************************************************
 LABEL *                                                                                 
  64 bit serial version                                                                  DATE: 30-Jan-24          TIME: 11:18:23  
 **********************************************************************************************************************************

 SHA1:             3a8a58c585c929645742fb5a1b7541a4ad1da699
 **********************************************************************************************************************************


 THRESHOLDS:

 ZERO    =  1.00D-12  ONEINT  =  1.00D-12  TWOINT  =  1.00D-11  PREFAC  =  1.00D-14  XXXXXX  =  1.00D-09  EORDER  =  1.00D-04
 ENERGY  =  0.00D+00  ETEST   =  0.00D+00  EDENS   =  0.00D+00  THRDEDEF=  1.00D-06  GRADIENT=  1.00D-02  STEP    =  1.00D-03
 ORBITAL =  1.00D-05  CIVEC   =  1.00D-05  COEFF   =  1.00D-04  PRINTCI =  5.00D-02  PUNCHCI =  9.90D+01  OPTGRAD =  3.00D-04
 OPTENERG=  1.00D-06  OPTSTEP =  3.00D-04  THRGRAD =  1.00D-10  COMPRESS=  1.00D-11  VARMIN  =  1.00D-07  VARMAX  =  1.00D-03
 THRDOUB =  0.00D+00  THRDIV  =  1.00D-05  THRRED  =  1.00D-07  THRPSP  =  1.00D+00  THRDC   =  1.00D-10  THRCS   =  1.00D-10
 THRNRM  =  1.00D-08  THREQ   =  0.00D+00  THRDE   =  1.00D+00  THRREF  =  1.00D-05  SPARFAC =  1.00D+00  THRDLP  =  1.00D-07
 THRDIA  =  1.00D-10  THRDLS  =  1.00D-07  THRGPS  =  0.00D+00  THRKEX  =  0.00D+00  THRDIS  =  2.00D-01  THRVAR  =  1.00D-10
 THRLOC  =  1.00D-06  THRGAP  =  1.00D-06  THRLOCT = -1.00D+00  THRGAPT = -1.00D+00  THRORB  =  1.00D-06  THRMLTP =  0.00D+00
 THRCPQCI=  1.00D-10  KEXTA   =  0.00D+00  THRCOARS=  0.00D+00  SYMTOL  =  1.00D-06  GRADTOL =  1.00D-06  THROVL  =  1.00D-08
 THRORTH =  1.00D-08  GRID    =  1.00D-06  GRIDMAX =  1.00D-03  DTMAX   =  0.00D+00  THROCCDE=  1.00D-01  THROCCDE=  1.00D-01
 THRPRINT=  0.00D+00


 Variable memory set to    8000000 words,  buffer space 

 SETTING BASIS          =    CC-PVTZ

Geometry recognized as XYZ



 Recomputing integrals since basis changed


 Using spherical harmonics

 Library entry C      S cc-pVTZ              selected for orbital group  1
 Library entry C      P cc-pVTZ              selected for orbital group  1
 Library entry C      D cc-pVTZ              selected for orbital group  1
 Library entry C      F cc-pVTZ              selected for orbital group  1
 Library entry H      S cc-pVTZ              selected for orbital group  2
 Library entry H      P cc-pVTZ              selected for orbital group  2
 Library entry H      D cc-pVTZ              selected for orbital group  2


 PROGRAM * SEWARD (Integral evaluation for generally contracted gaussian basis sets)     Author: Roland Lindh, 1990

 Geometry written to block  1 of record 700


 Point group  D2h 



 ATOMIC COORDINATES

 NR  ATOM    CHARGE       X              Y              Z

   1  C       6.00    1.228321981    0.000000000    0.000000000
   2  C       6.00   -1.228321981    0.000000000    0.000000000
   3  H       1.00    2.078698737    0.000000000    1.889726125
   4  H       1.00    2.078698737    0.000000000   -1.889726125
   5  H       1.00   -2.078698737    0.000000000    1.889726125
   6  H       1.00   -2.078698737    0.000000000   -1.889726125

 Bond lengths in Bohr (Angstrom)

 1-2  2.456643962  1-3  2.072246475  1-4  2.072246475  2-5  2.072246475  2-6  2.072246475
     ( 1.300000000)     ( 1.096585610)     ( 1.096585610)     ( 1.096585610)     ( 1.096585610)

 Bond angles

  1-2-5  114.22774532   1-2-6  114.22774532   2-1-3  114.22774532   2-1-4  114.22774532

  3-1-4  131.54450936   5-2-6  131.54450936


 BASIS DATA

   Nr Sym  Nuc  Type         Exponents   Contraction coefficients

    1.1 Ag    1  1s        8236.000000     0.000531   -0.000113    0.000000    0.000000
    2.1 Ag    2  1s        1235.000000     0.004108   -0.000878    0.000000    0.000000
    3.1 Ag                  280.800000     0.021087   -0.004540    0.000000    0.000000
    4.1 Ag                   79.270000     0.081853   -0.018133    0.000000    0.000000
                             25.590000     0.234817   -0.055760    0.000000    0.000000
                              8.997000     0.434401   -0.126895    0.000000    0.000000
                              3.319000     0.346129   -0.170352    0.000000    0.000000
                              0.905900     0.039378    0.140382    1.000000    0.000000
                              0.364300    -0.008983    0.598684    0.000000    0.000000
                              0.128500     0.002385    0.395389    0.000000    1.000000
    5.1 Ag    1  2px         18.710000     0.014031    0.000000    0.000000
    6.1 Ag    2 -2px          4.133000     0.086866    0.000000    0.000000
    7.1 Ag                    1.200000     0.290216    0.000000    0.000000
                              0.382700     0.501008    1.000000    0.000000
                              0.120900     0.343406    0.000000    1.000000
    8.1 Ag    1  3d0          1.097000     1.000000
              2  3d0   
    9.1 Ag    1  3d2+         1.097000     1.000000
              2  3d2+  
   10.1 Ag    1  3d0          0.318000     1.000000
              2  3d0   
   11.1 Ag    1  3d2+         0.318000     1.000000
              2  3d2+  
   12.1 Ag    1  4f1+         0.761000     1.000000
              2 -4f1+  
   13.1 Ag    1  4f3+         0.761000     1.000000
              2 -4f3+  
   14.1 Ag    3  1s          33.870000     0.006068    0.000000    0.000000
   15.1 Ag    4  1s           5.095000     0.045308    0.000000    0.000000
   16.1 Ag    5  1s           1.159000     0.202822    0.000000    0.000000
              6  1s           0.325800     0.503903    1.000000    0.000000
                              0.102700     0.383421    0.000000    1.000000
   17.1 Ag    3  2px          1.407000     1.000000
              4  2px   
              5 -2px   
              6 -2px   
   18.1 Ag    3  2pz          1.407000     1.000000
              4 -2pz   
              5  2pz   
              6 -2pz   
   19.1 Ag    3  2px          0.388000     1.000000
              4  2px   
              5 -2px   
              6 -2px   
   20.1 Ag    3  2pz          0.388000     1.000000
              4 -2pz   
              5  2pz   
              6 -2pz   
   21.1 Ag    3  3d0          1.057000     1.000000
              4  3d0   
              5  3d0   
              6  3d0   
   22.1 Ag    3  3d2+         1.057000     1.000000
              4  3d2+  
              5  3d2+  
              6  3d2+  
   23.1 Ag    3  3d1+         1.057000     1.000000
              4 -3d1+  
              5 -3d1+  
              6  3d1+  
    1.2 B3u   1  1s        8236.000000     0.000531   -0.000113    0.000000    0.000000
    2.2 B3u   2 -1s        1235.000000     0.004108   -0.000878    0.000000    0.000000
    3.2 B3u                 280.800000     0.021087   -0.004540    0.000000    0.000000
    4.2 B3u                  79.270000     0.081853   -0.018133    0.000000    0.000000
                             25.590000     0.234817   -0.055760    0.000000    0.000000
                              8.997000     0.434401   -0.126895    0.000000    0.000000
                              3.319000     0.346129   -0.170352    0.000000    0.000000
                              0.905900     0.039378    0.140382    1.000000    0.000000
                              0.364300    -0.008983    0.598684    0.000000    0.000000
                              0.128500     0.002385    0.395389    0.000000    1.000000
    5.2 B3u   1  2px         18.710000     0.014031    0.000000    0.000000
    6.2 B3u   2  2px          4.133000     0.086866    0.000000    0.000000
    7.2 B3u                   1.200000     0.290216    0.000000    0.000000
                              0.382700     0.501008    1.000000    0.000000
                              0.120900     0.343406    0.000000    1.000000
    8.2 B3u   1  3d0          1.097000     1.000000
              2 -3d0   
    9.2 B3u   1  3d2+         1.097000     1.000000
              2 -3d2+  
   10.2 B3u   1  3d0          0.318000     1.000000
              2 -3d0   
   11.2 B3u   1  3d2+         0.318000     1.000000
              2 -3d2+  
   12.2 B3u   1  4f1+         0.761000     1.000000
              2  4f1+  
   13.2 B3u   1  4f3+         0.761000     1.000000
              2  4f3+  
   14.2 B3u   3  1s          33.870000     0.006068    0.000000    0.000000
   15.2 B3u   4  1s           5.095000     0.045308    0.000000    0.000000
   16.2 B3u   5 -1s           1.159000     0.202822    0.000000    0.000000
              6 -1s           0.325800     0.503903    1.000000    0.000000
                              0.102700     0.383421    0.000000    1.000000
   17.2 B3u   3  2px          1.407000     1.000000
              4  2px   
              5  2px   
              6  2px   
   18.2 B3u   3  2pz          1.407000     1.000000
              4 -2pz   
              5 -2pz   
              6  2pz   
   19.2 B3u   3  2px          0.388000     1.000000
              4  2px   
              5  2px   
              6  2px   
   20.2 B3u   3  2pz          0.388000     1.000000
              4 -2pz   
              5 -2pz   
              6  2pz   
   21.2 B3u   3  3d0          1.057000     1.000000
              4  3d0   
              5 -3d0   
              6 -3d0   
   22.2 B3u   3  3d2+         1.057000     1.000000
              4  3d2+  
              5 -3d2+  
              6 -3d2+  
   23.2 B3u   3  3d1+         1.057000     1.000000
              4 -3d1+  
              5  3d1+  
              6 -3d1+  
    1.3 B2u   1  2py         18.710000     0.014031    0.000000    0.000000
    2.3 B2u   2  2py          4.133000     0.086866    0.000000    0.000000
    3.3 B2u                   1.200000     0.290216    0.000000    0.000000
                              0.382700     0.501008    1.000000    0.000000
                              0.120900     0.343406    0.000000    1.000000
    4.3 B2u   1  3d2-         1.097000     1.000000
              2 -3d2-  
    5.3 B2u   1  3d2-         0.318000     1.000000
              2 -3d2-  
    6.3 B2u   1  4f1-         0.761000     1.000000
              2  4f1-  
    7.3 B2u   1  4f3-         0.761000     1.000000
              2  4f3-  
    8.3 B2u   3  2py          1.407000     1.000000
              4  2py   
              5  2py   
              6  2py   
    9.3 B2u   3  2py          0.388000     1.000000
              4  2py   
              5  2py   
              6  2py   
   10.3 B2u   3  3d2-         1.057000     1.000000
              4  3d2-  
              5 -3d2-  
              6 -3d2-  
   11.3 B2u   3  3d1-         1.057000     1.000000
              4 -3d1-  
              5  3d1-  
              6 -3d1-  
    1.4 B1g   1  2py         18.710000     0.014031    0.000000    0.000000
    2.4 B1g   2 -2py          4.133000     0.086866    0.000000    0.000000
    3.4 B1g                   1.200000     0.290216    0.000000    0.000000
                              0.382700     0.501008    1.000000    0.000000
                              0.120900     0.343406    0.000000    1.000000
    4.4 B1g   1  3d2-         1.097000     1.000000
              2  3d2-  
    5.4 B1g   1  3d2-         0.318000     1.000000
              2  3d2-  
    6.4 B1g   1  4f1-         0.761000     1.000000
              2 -4f1-  
    7.4 B1g   1  4f3-         0.761000     1.000000
              2 -4f3-  
    8.4 B1g   3  2py          1.407000     1.000000
              4  2py   
              5 -2py   
              6 -2py   
    9.4 B1g   3  2py          0.388000     1.000000
              4  2py   
              5 -2py   
              6 -2py   
   10.4 B1g   3  3d2-         1.057000     1.000000
              4  3d2-  
              5  3d2-  
              6  3d2-  
   11.4 B1g   3  3d1-         1.057000     1.000000
              4 -3d1-  
              5 -3d1-  
              6  3d1-  
    1.5 B1u   1  2pz         18.710000     0.014031    0.000000    0.000000
    2.5 B1u   2  2pz          4.133000     0.086866    0.000000    0.000000
    3.5 B1u                   1.200000     0.290216    0.000000    0.000000
                              0.382700     0.501008    1.000000    0.000000
                              0.120900     0.343406    0.000000    1.000000
    4.5 B1u   1  3d1+         1.097000     1.000000
              2 -3d1+  
    5.5 B1u   1  3d1+         0.318000     1.000000
              2 -3d1+  
    6.5 B1u   1  4f0          0.761000     1.000000
              2  4f0   
    7.5 B1u   1  4f2+         0.761000     1.000000
              2  4f2+  
    8.5 B1u   3  1s          33.870000     0.006068    0.000000    0.000000
    9.5 B1u   4 -1s           5.095000     0.045308    0.000000    0.000000
   10.5 B1u   5  1s           1.159000     0.202822    0.000000    0.000000
              6 -1s           0.325800     0.503903    1.000000    0.000000
                              0.102700     0.383421    0.000000    1.000000
   11.5 B1u   3  2pz          1.407000     1.000000
              4  2pz   
              5  2pz   
              6  2pz   
   12.5 B1u   3  2px          1.407000     1.000000
              4 -2px   
              5 -2px   
              6  2px   
   13.5 B1u   3  2pz          0.388000     1.000000
              4  2pz   
              5  2pz   
              6  2pz   
   14.5 B1u   3  2px          0.388000     1.000000
              4 -2px   
              5 -2px   
              6  2px   
   15.5 B1u   3  3d1+         1.057000     1.000000
              4  3d1+  
              5 -3d1+  
              6 -3d1+  
   16.5 B1u   3  3d0          1.057000     1.000000
              4 -3d0   
              5  3d0   
              6 -3d0   
   17.5 B1u   3  3d2+         1.057000     1.000000
              4 -3d2+  
              5  3d2+  
              6 -3d2+  
    1.6 B2g   1  2pz         18.710000     0.014031    0.000000    0.000000
    2.6 B2g   2 -2pz          4.133000     0.086866    0.000000    0.000000
    3.6 B2g                   1.200000     0.290216    0.000000    0.000000
                              0.382700     0.501008    1.000000    0.000000
                              0.120900     0.343406    0.000000    1.000000
    4.6 B2g   1  3d1+         1.097000     1.000000
              2  3d1+  
    5.6 B2g   1  3d1+         0.318000     1.000000
              2  3d1+  
    6.6 B2g   1  4f0          0.761000     1.000000
              2 -4f0   
    7.6 B2g   1  4f2+         0.761000     1.000000
              2 -4f2+  
    8.6 B2g   3  1s          33.870000     0.006068    0.000000    0.000000
    9.6 B2g   4 -1s           5.095000     0.045308    0.000000    0.000000
   10.6 B2g   5 -1s           1.159000     0.202822    0.000000    0.000000
              6  1s           0.325800     0.503903    1.000000    0.000000
                              0.102700     0.383421    0.000000    1.000000
   11.6 B2g   3  2pz          1.407000     1.000000
              4  2pz   
              5 -2pz   
              6 -2pz   
   12.6 B2g   3  2px          1.407000     1.000000
              4 -2px   
              5  2px   
              6 -2px   
   13.6 B2g   3  2pz          0.388000     1.000000
              4  2pz   
              5 -2pz   
              6 -2pz   
   14.6 B2g   3  2px          0.388000     1.000000
              4 -2px   
              5  2px   
              6 -2px   
   15.6 B2g   3  3d1+         1.057000     1.000000
              4  3d1+  
              5  3d1+  
              6  3d1+  
   16.6 B2g   3  3d0          1.057000     1.000000
              4 -3d0   
              5 -3d0   
              6  3d0   
   17.6 B2g   3  3d2+         1.057000     1.000000
              4 -3d2+  
              5 -3d2+  
              6  3d2+  
    1.7 B3g   1  3d1-         1.097000     1.000000
              2  3d1-  
    2.7 B3g   1  3d1-         0.318000     1.000000
              2  3d1-  
    3.7 B3g   1  4f2-         0.761000     1.000000
              2 -4f2-  
    4.7 B3g   3  2py          1.407000     1.000000
              4 -2py   
              5  2py   
              6 -2py   
    5.7 B3g   3  2py          0.388000     1.000000
              4 -2py   
              5  2py   
              6 -2py   
    6.7 B3g   3  3d1-         1.057000     1.000000
              4  3d1-  
              5  3d1-  
              6  3d1-  
    7.7 B3g   3  3d2-         1.057000     1.000000
              4 -3d2-  
              5 -3d2-  
              6  3d2-  
    1.8 Au    1  3d1-         1.097000     1.000000
              2 -3d1-  
    2.8 Au    1  3d1-         0.318000     1.000000
              2 -3d1-  
    3.8 Au    1  4f2-         0.761000     1.000000
              2  4f2-  
    4.8 Au    3  2py          1.407000     1.000000
              4 -2py   
              5 -2py   
              6  2py   
    5.8 Au    3  2py          0.388000     1.000000
              4 -2py   
              5 -2py   
              6  2py   
    6.8 Au    3  3d1-         1.057000     1.000000
              4  3d1-  
              5 -3d1-  
              6 -3d1-  
    7.8 Au    3  3d2-         1.057000     1.000000
              4 -3d2-  
              5  3d2-  
              6 -3d2-  

 NUCLEAR CHARGE:                   16
 NUMBER OF PRIMITIVE AOS:         162
 NUMBER OF SYMMETRY AOS:          148
 NUMBER OF CONTRACTIONS:          116   (   23Ag  +   23B3u +   11B2u +   11B1g +   17B1u +   17B2g +    7B3g +    7Au  )
 NUMBER OF CORE ORBITALS:           2   (    1Ag  +    1B3u +    0B2u +    0B1g +    0B1u +    0B2g +    0B3g +    0Au  )
 NUMBER OF VALENCE ORBITALS:       12   (    3Ag  +    3B3u +    1B2u +    1B1g +    2B1u +    2B2g +    0B3g +    0Au  )


 NUCLEAR REPULSION ENERGY   33.90307262

 Eigenvalues of metric

         1 0.148E-02 0.622E-02 0.156E-01 0.216E-01 0.481E-01 0.569E-01 0.112E+00 0.132E+00
         2 0.706E-03 0.134E-02 0.173E-02 0.762E-02 0.207E-01 0.342E-01 0.633E-01 0.101E+00
         3 0.354E-01 0.131E+00 0.281E+00 0.375E+00 0.529E+00 0.683E+00 0.123E+01 0.138E+01
         4 0.178E-01 0.638E-01 0.973E-01 0.154E+00 0.262E+00 0.412E+00 0.755E+00 0.121E+01
         5 0.227E-02 0.929E-02 0.270E-01 0.471E-01 0.715E-01 0.129E+00 0.201E+00 0.354E+00
         6 0.940E-03 0.366E-02 0.695E-02 0.134E-01 0.474E-01 0.697E-01 0.903E-01 0.269E+00
         7 0.930E-01 0.356E+00 0.515E+00 0.865E+00 0.129E+01 0.175E+01 0.287E+01
         8 0.469E-01 0.238E+00 0.413E+00 0.569E+00 0.112E+01 0.130E+01 0.243E+01


 Contracted 2-electron integrals neglected if value below      1.0D-11
 AO integral compression algorithm  1   Integral accuracy      1.0D-11

     22.282 MB (compressed) written to integral file ( 59.3%)


 NUMBER OF SORTED TWO-ELECTRON INTEGRALS:    3048425.     BUFFER LENGTH:  32768
 NUMBER OF SEGMENTS:   1  SEGMENT LENGTH:    3048425      RECORD LENGTH: 524288

 Memory used in sort:       3.61 MW

 SORT1 READ     4714640. AND WROTE     3048425. INTEGRALS IN      9 RECORDS. CPU TIME:     0.13 SEC, REAL TIME:     0.20 SEC
 SORT2 READ     3048425. AND WROTE     3048425. INTEGRALS IN     85 RECORDS. CPU TIME:     0.23 SEC, REAL TIME:     0.28 SEC

 FILE SIZES:   FILE 1:    52.7 MBYTE,  FILE 4:    37.8 MBYTE,   TOTAL:     90.4 MBYTE

 OPERATOR DM      FOR CENTER  0  COORDINATES:    0.000000    0.000000    0.000000


 **********************************************************************************************************************************
 DATASETS  * FILE   NREC   LENGTH (MB)   RECORD NAMES
              1      19       44.97       500      610      700      900      950      970     1000      129      960     1100   
                                          VAR    BASINP    GEOM    SYMINP    ZMAT    AOBASIS   BASIS     P2S    ABASIS      S 
                                         1400     1410     1200     1210     1080     1600     1650     1300     1700   
                                           T        V       H0       H01     AOSYM     SMH    MOLCAS    ERIS     OPER   

 PROGRAMS   *        TOTAL       INT
 CPU TIMES  *         1.53      1.42
 REAL TIME  *         3.83 SEC
 DISK USED  *        90.82 MB
 **********************************************************************************************************************************


 PROGRAM * RHF-SCF (CLOSED SHELL)       Authors: W. Meyer, H.-J. Werner


 NUMBER OF ELECTRONS:       8+    8-
 CONVERGENCE THRESHOLDS:    1.00E-06 (Density)    1.00E-07 (Energy)
 MAX. NUMBER OF ITERATIONS:       60
 INTERPOLATION TYPE:            DIIS
 INTERPOLATION STEPS:              2 (START)      1 (STEP)
 LEVEL SHIFTS:                  0.00 (CLOSED)  0.00 (OPEN) 



 Orbital guess generated from atomic densities. Full valence occupancy:    4   4   1   1   2   2   0   0


 Molecular orbital dump at record        2100.2

 Initial occupancy:   3   2   1   0   1   1   0   0

 ITERATION    DDIFF          GRAD             ENERGY        2-EL.EN.            DIPOLE MOMENTS         DIIS   ORB.
    1      0.000D+00      0.000D+00       -78.02517275    119.660593    0.00000    0.00000    0.00000    0    start
    2      0.000D+00      0.112D-01       -78.04671172    117.831758    0.00000    0.00000    0.00000    1    diag
    3      0.164D-01      0.391D-02       -78.04913218    118.543420    0.00000    0.00000    0.00000    2    diag
    4      0.438D-02      0.105D-02       -78.04942183    118.421552    0.00000    0.00000    0.00000    3    diag
    5      0.154D-02      0.121D-03       -78.04942653    118.427942    0.00000    0.00000    0.00000    4    diag
    6      0.216D-03      0.175D-04       -78.04942665    118.427559    0.00000    0.00000    0.00000    5    diag
    7      0.406D-04      0.290D-05       -78.04942666    118.427581    0.00000    0.00000    0.00000    6    diag
    8      0.707D-05      0.382D-06       -78.04942666    118.427580    0.00000    0.00000    0.00000    7    diag
    9      0.704D-06      0.603D-07       -78.04942666    118.427581    0.00000    0.00000    0.00000    0    orth

 Final occupancy:   3   2   1   0   1   1   0   0

 !RHF STATE  1.1 Energy               -78.049426657754
 Nuclear energy                        33.90307262
 One-electron energy                 -171.16628963
 Two-electron energy                   59.21379035
 Virial quotient                       -1.00080114
 !RHF STATE  1.1 Dipole moment          0.00000000     0.00000000     0.00000000
 Dipole moment /Debye                   0.00000000     0.00000000     0.00000000

 MOLECULAR ORBITALS
 ==================

   Orb  Occ    Energy       Coefficients

                            1 1s      1 1s      1 1s      1 1s      1 2px     1 2px     1 2px     1 3d0     1 3d2+    1 3d0  
                            1 3d2+    1 4f1+    1 4f3+    2 1s      2 1s      2 1s      2 2px     2 2pz     2 2px     2 2pz  
                            2 3d0     2 3d2+    2 3d1+ 

   1.1   2   -11.2224     0.998524  0.000549  0.002128  0.000567  0.000930 -0.001214 -0.000148  0.000394  0.000455 -0.000375
                          0.000200  0.000605 -0.000122  0.000534  0.000426 -0.001139  0.000199  0.000431 -0.000263 -0.000116
                         -0.000359  0.000084 -0.000217

   2.1   2    -1.0489    -0.023320  0.873712 -0.021765 -0.164020 -0.297893  0.062066  0.091192  0.000355  0.019503  0.014965
                          0.015882  0.011633 -0.004580  0.409810 -0.143495 -0.154366 -0.006494 -0.006570  0.008001  0.011718
                         -0.001795  0.000671  0.000046

   3.1   2    -0.5543     0.001237 -0.049611  0.001206  0.058705  0.920148 -0.083436 -0.164700  0.023782 -0.016412  0.020662
                         -0.010822 -0.003054  0.006378  0.605956 -0.063190 -0.122927  0.001805 -0.014024  0.007226 -0.024690
                          0.005714 -0.001307 -0.000235

                            1 1s      1 1s      1 1s      1 1s      1 2px     1 2px     1 2px     1 3d0     1 3d2+    1 3d0  
                            1 3d2+    1 4f1+    1 4f3+    2 1s      2 1s      2 1s      2 2px     2 2pz     2 2px     2 2pz  
                            2 3d0     2 3d2+    2 3d1+ 

   1.2   2   -11.2204     1.000165  0.004259  0.001788  0.000788  0.002579 -0.007822 -0.003220  0.000207  0.001143 -0.004049
                          0.001620  0.001036 -0.000492  0.001289  0.004455 -0.000421  0.000102  0.000418 -0.001458 -0.001295
                         -0.000407  0.000028 -0.000183

   2.2   2    -0.7619    -0.008312  0.711566 -0.016890  0.005926  0.340827 -0.033222 -0.090966  0.014973  0.003786  0.025814
                          0.011691  0.006617 -0.001743  0.723119 -0.143144 -0.221512 -0.004074 -0.015783  0.003067 -0.014852
                          0.003657 -0.000316  0.001098

                            1 2py     1 2py     1 2py     1 3d2-    1 3d2-    1 4f1-    1 4f3-    2 2py     2 2py     2 3d2- 
                            2 3d1- 

   1.3   2    -0.3843     0.811604 -0.016512  0.024687 -0.021274 -0.041302 -0.000095  0.009966  0.010022  0.029238 -0.003121
                         -0.003932

                            1 2pz     1 2pz     1 2pz     1 3d1+    1 3d1+    1 4f0     1 4f2+    2 1s      2 1s      2 1s   
                            2 2pz     2 2px     2 2pz     2 2px     2 3d1+    2 3d0     2 3d2+ 

   1.5   2    -0.6689     0.682421 -0.057810 -0.134434  0.003109  0.002656 -0.002452  0.006197  0.785121 -0.106223 -0.223331
                         -0.015051 -0.011936 -0.018321 -0.016752  0.005980  0.002295  0.002282

                            1 2pz     1 2pz     1 2pz     1 3d1+    1 3d1+    1 4f0     1 4f2+    2 1s      2 1s      2 1s   
                            2 2pz     2 2px     2 2pz     2 2px     2 3d1+    2 3d0     2 3d2+ 

   1.6   2    -0.5083     0.650229 -0.026455 -0.041258  0.027008  0.043973  0.006018  0.000640  0.949776 -0.142866 -0.204782
                         -0.015229 -0.007264 -0.006727 -0.006293  0.002829  0.003260 -0.000033


 HOMO      1.3    -0.384257 =     -10.4562eV
 LUMO      4.1     0.155366 =       4.2277eV
 LUMO-HOMO         0.539623 =      14.6839eV


 **********************************************************************************************************************************
 DATASETS  * FILE   NREC   LENGTH (MB)   RECORD NAMES
              1      19       44.97       500      610      700      900      950      970     1000      129      960     1100   
                                          VAR    BASINP    GEOM    SYMINP    ZMAT    AOBASIS   BASIS     P2S    ABASIS      S 
                                         1400     1410     1200     1210     1080     1600     1650     1300     1700   
                                           T        V       H0       H01     AOSYM     SMH    MOLCAS    ERIS     OPER   

              2       4        2.89       700     1000      520     2100   
                                         GEOM     BASIS   MCVARS     RHF  

 PROGRAMS   *        TOTAL    HF-SCF       INT
 CPU TIMES  *         1.74      0.21      1.42
 REAL TIME  *         4.42 SEC
 DISK USED  *        90.82 MB
 **********************************************************************************************************************************


 PROGRAM * OPT (Geometry optimization)     Authors: F. Eckert and H.-J. Werner


 BFGS update of hessian

 *** Long output written to logfile /scr/matheus/molpro-14430/C2H4.log ***


 Geometry optimization using default procedure for command HF-SCF

 Geometry written to block  1 of record 700

 Making model hessian for cartesian coordinates

 Entering Rational Function Geometry Optimization

 ITER.   ENERGY(OLD)    ENERGY(NEW)      DE          GRADMAX     GRADNORM    GRADRMS     STEPMAX     STEPLEN     STEPRMS   CPU-time
   1   -78.04942666   -78.06098995    -0.01156329  0.04766693  0.05986785  0.00498899  0.29553111  0.30000000  0.12247449      2.56
   2   -78.06098995   -78.06438974    -0.00339980  0.02220548  0.02958833  0.00246569  0.23359805  0.24010062  0.09802067      5.13
   3   -78.06438974   -78.06441982    -0.00003008  0.00291801  0.00356947  0.00029746  0.02000936  0.02143395  0.00875038      7.71
   4   -78.06441982   -78.06442006    -0.00000023  0.00047371  0.00057990  0.00004833  0.00086956  0.00091029  0.00037162     10.31
   5   -78.06442006   -78.06442007    -0.00000001  0.00012118  0.00012983  0.00001082  0.00021064  0.00026386  0.00010772     12.89

 END OF GEOMETRY OPTIMIZATION.

 Current geometry (xyz format, in Angstrom)

    6
 HF-SCF000/CC-PVTZ  ENERGY=-78.06442007
 C          0.6569568868        0.0000000000        0.0000000000
 C         -0.6569568868        0.0000000000        0.0000000000
 H          1.2208512433        0.0000000000        0.9144803305
 H          1.2208512433        0.0000000000       -0.9144803305
 H         -1.2208512433        0.0000000000        0.9144803305
 H         -1.2208512433        0.0000000000       -0.9144803305

 **********************************************************************************************************************************

 Geometry written to block  1 of record 700


 **********************************************************************************************************************************
 DATASETS  * FILE   NREC   LENGTH (MB)   RECORD NAMES
              1      19       45.00       500      610      700      900      950      970     1000      129      960     1100   
                                          VAR    BASINP    GEOM    SYMINP    ZMAT    AOBASIS   BASIS     P2S    ABASIS      S 
                                         1400     1410     1200     1210     1080     1600     1650     1300     1700   
                                           T        V       H0       H01     AOSYM     SMH    MOLCAS    ERIS     OPER   

              2       4        2.89       700     1000      520     2100   
                                         GEOM     BASIS   MCVARS     RHF  

 PROGRAMS   *        TOTAL      OPTG    HF-SCF       INT
 CPU TIMES  *        14.63     12.89      0.21      1.42
 REAL TIME  *        26.95 SEC
 DISK USED  *        93.38 MB
 **********************************************************************************************************************************
 Molecular orbitals read from record     2100.2  Type=RHF/CANONICAL (state 1.1)
 Occupation numbers read from record     2100.2  Type=RHF/RHF (state 1.1)
 Orbital energies read from record       2100.2  Type=RHF/CANONICAL (state 1.1)
 Redundancy group numbers read from rec  2100.2  Type=RHF/RHF (state 1.1)

 HF/cc-pVTZ//HF/cc-pVTZ energy=    -78.064420066199

    OPTG(HF-SCF)          HF-SCF
    -78.06442007    -78.04942666
 **********************************************************************************************************************************
 Molpro calculation terminated
