
 Primary working directories    : /scr/matheus/molpro-14433/molpro.n4zBBX7qCY
 Secondary working directories  : /scr/matheus/molpro-14433/molpro.n4zBBX7qCY
 Wavefunction directory         : /home/matheus/wfu/
 Main file repository           : /scr/matheus/molpro-14433/molpro.n4zBBX7qCY/

 id        : yuriaoto

 Nodes             nprocs
 t-rex.ufabc.int.br    1

 Using customized tuning parameters: mindgm=8; mindgv=16; mindgc=1; mindgr=1; noblas=0; minvec=7
 default implementation of scratch files=df  


 Variables initialized (933), CPU time= 0.00 sec
                                                                                 !! Extra options
 gprint, orbitals=0, civec, basis
 gthresh,thrprint=0
                                                                                 !!!
 
 basis=cc-pvtz                                                                   !Basis set
 
                                                                                 ! Molecule xyz file
 geometry={
 Including file /home/matheus/RAM_tests/C2H4_mp2.xyz
 >    6
 > MP2/CC-PVTZ  ENERGY=-78.39930633
 > C          0.6660175601        0.0000000000        0.0000000000
 > C         -0.6660175601        0.0000000000        0.0000000000
 > H          1.2279269462        0.0000000000        0.9228229868
 > H          1.2279269462        0.0000000000       -0.9228229868
 > H         -1.2279269462        0.0000000000        0.9228229868
 > H         -1.2279269462        0.0000000000       -0.9228229868
 }
 
                                                                                 ! Methods
 {hf
 wf,15,3,1
 }
 
 {mp2
 wf,15,3,1
 }
 Commands  initialized (760), CPU time= 0.00 sec, 617 directives.
 Default parameters read. Elapsed time= 0.09 sec

 Checking input...
 Passed
1


                                         ***  PROGRAM SYSTEM MOLPRO  ***
                                       Copyright, TTI GmbH Stuttgart, 2015
                                    Version 2019.2 linked Abr  7 2019 15:10:35


 **********************************************************************************************************************************
 LABEL *                                                                                 
  64 bit serial version                                                                  DATE: 30-Jan-24          TIME: 11:50:20  
 **********************************************************************************************************************************

 SHA1:             3a8a58c585c929645742fb5a1b7541a4ad1da699
 **********************************************************************************************************************************


 THRESHOLDS:

 ZERO    =  1.00D-12  ONEINT  =  1.00D-12  TWOINT  =  1.00D-11  PREFAC  =  1.00D-14  XXXXXX  =  1.00D-09  EORDER  =  1.00D-04
 ENERGY  =  0.00D+00  ETEST   =  0.00D+00  EDENS   =  0.00D+00  THRDEDEF=  1.00D-06  GRADIENT=  1.00D-02  STEP    =  1.00D-03
 ORBITAL =  1.00D-05  CIVEC   =  1.00D-05  COEFF   =  1.00D-04  PRINTCI =  5.00D-02  PUNCHCI =  9.90D+01  OPTGRAD =  3.00D-04
 OPTENERG=  1.00D-06  OPTSTEP =  3.00D-04  THRGRAD =  1.00D-10  COMPRESS=  1.00D-11  VARMIN  =  1.00D-07  VARMAX  =  1.00D-03
 THRDOUB =  0.00D+00  THRDIV  =  1.00D-05  THRRED  =  1.00D-07  THRPSP  =  1.00D+00  THRDC   =  1.00D-10  THRCS   =  1.00D-10
 THRNRM  =  1.00D-08  THREQ   =  0.00D+00  THRDE   =  1.00D+00  THRREF  =  1.00D-05  SPARFAC =  1.00D+00  THRDLP  =  1.00D-07
 THRDIA  =  1.00D-10  THRDLS  =  1.00D-07  THRGPS  =  0.00D+00  THRKEX  =  0.00D+00  THRDIS  =  2.00D-01  THRVAR  =  1.00D-10
 THRLOC  =  1.00D-06  THRGAP  =  1.00D-06  THRLOCT = -1.00D+00  THRGAPT = -1.00D+00  THRORB  =  1.00D-06  THRMLTP =  0.00D+00
 THRCPQCI=  1.00D-10  KEXTA   =  0.00D+00  THRCOARS=  0.00D+00  SYMTOL  =  1.00D-06  GRADTOL =  1.00D-06  THROVL  =  1.00D-08
 THRORTH =  1.00D-08  GRID    =  1.00D-06  GRIDMAX =  1.00D-03  DTMAX   =  0.00D+00  THROCCDE=  1.00D-01  THROCCDE=  1.00D-01
 THRPRINT=  0.00D+00


 Variable memory set to    8000000 words,  buffer space 

 SETTING BASIS          =    CC-PVTZ

Geometry recognized as XYZ



 Recomputing integrals since basis changed


 Using spherical harmonics

 Library entry C      S cc-pVTZ              selected for orbital group  1
 Library entry C      P cc-pVTZ              selected for orbital group  1
 Library entry C      D cc-pVTZ              selected for orbital group  1
 Library entry C      F cc-pVTZ              selected for orbital group  1
 Library entry H      S cc-pVTZ              selected for orbital group  2
 Library entry H      P cc-pVTZ              selected for orbital group  2
 Library entry H      D cc-pVTZ              selected for orbital group  2


 PROGRAM * SEWARD (Integral evaluation for generally contracted gaussian basis sets)     Author: Roland Lindh, 1990

 Geometry written to block  1 of record 700


 Point group  D2h 



 ATOMIC COORDINATES

 NR  ATOM    CHARGE       X              Y              Z

   1  C       6.00    1.258590783    0.000000000    0.000000000
   2  C       6.00   -1.258590783    0.000000000    0.000000000
   3  H       1.00    2.320445629    0.000000000    1.743882707
   4  H       1.00    2.320445629    0.000000000   -1.743882707
   5  H       1.00   -2.320445629    0.000000000    1.743882707
   6  H       1.00   -2.320445629    0.000000000   -1.743882707

 Bond lengths in Bohr (Angstrom)

 1-2  2.517181565  1-3  2.041730298  1-4  2.041730298  2-5  2.041730298  2-6  2.041730298
     ( 1.332035120)     ( 1.080437144)     ( 1.080437144)     ( 1.080437144)     ( 1.080437144)

 Bond angles

  1-2-5  121.33734694   1-2-6  121.33734694   2-1-3  121.33734694   2-1-4  121.33734694

  3-1-4  117.32530612   5-2-6  117.32530612


 BASIS DATA

   Nr Sym  Nuc  Type         Exponents   Contraction coefficients

    1.1 Ag    1  1s        8236.000000     0.000531   -0.000113    0.000000    0.000000
    2.1 Ag    2  1s        1235.000000     0.004108   -0.000878    0.000000    0.000000
    3.1 Ag                  280.800000     0.021087   -0.004540    0.000000    0.000000
    4.1 Ag                   79.270000     0.081853   -0.018133    0.000000    0.000000
                             25.590000     0.234817   -0.055760    0.000000    0.000000
                              8.997000     0.434401   -0.126895    0.000000    0.000000
                              3.319000     0.346129   -0.170352    0.000000    0.000000
                              0.905900     0.039378    0.140382    1.000000    0.000000
                              0.364300    -0.008983    0.598684    0.000000    0.000000
                              0.128500     0.002385    0.395389    0.000000    1.000000
    5.1 Ag    1  2px         18.710000     0.014031    0.000000    0.000000
    6.1 Ag    2 -2px          4.133000     0.086866    0.000000    0.000000
    7.1 Ag                    1.200000     0.290216    0.000000    0.000000
                              0.382700     0.501008    1.000000    0.000000
                              0.120900     0.343406    0.000000    1.000000
    8.1 Ag    1  3d0          1.097000     1.000000
              2  3d0   
    9.1 Ag    1  3d2+         1.097000     1.000000
              2  3d2+  
   10.1 Ag    1  3d0          0.318000     1.000000
              2  3d0   
   11.1 Ag    1  3d2+         0.318000     1.000000
              2  3d2+  
   12.1 Ag    1  4f1+         0.761000     1.000000
              2 -4f1+  
   13.1 Ag    1  4f3+         0.761000     1.000000
              2 -4f3+  
   14.1 Ag    3  1s          33.870000     0.006068    0.000000    0.000000
   15.1 Ag    4  1s           5.095000     0.045308    0.000000    0.000000
   16.1 Ag    5  1s           1.159000     0.202822    0.000000    0.000000
              6  1s           0.325800     0.503903    1.000000    0.000000
                              0.102700     0.383421    0.000000    1.000000
   17.1 Ag    3  2px          1.407000     1.000000
              4  2px   
              5 -2px   
              6 -2px   
   18.1 Ag    3  2pz          1.407000     1.000000
              4 -2pz   
              5  2pz   
              6 -2pz   
   19.1 Ag    3  2px          0.388000     1.000000
              4  2px   
              5 -2px   
              6 -2px   
   20.1 Ag    3  2pz          0.388000     1.000000
              4 -2pz   
              5  2pz   
              6 -2pz   
   21.1 Ag    3  3d0          1.057000     1.000000
              4  3d0   
              5  3d0   
              6  3d0   
   22.1 Ag    3  3d2+         1.057000     1.000000
              4  3d2+  
              5  3d2+  
              6  3d2+  
   23.1 Ag    3  3d1+         1.057000     1.000000
              4 -3d1+  
              5 -3d1+  
              6  3d1+  
    1.2 B3u   1  1s        8236.000000     0.000531   -0.000113    0.000000    0.000000
    2.2 B3u   2 -1s        1235.000000     0.004108   -0.000878    0.000000    0.000000
    3.2 B3u                 280.800000     0.021087   -0.004540    0.000000    0.000000
    4.2 B3u                  79.270000     0.081853   -0.018133    0.000000    0.000000
                             25.590000     0.234817   -0.055760    0.000000    0.000000
                              8.997000     0.434401   -0.126895    0.000000    0.000000
                              3.319000     0.346129   -0.170352    0.000000    0.000000
                              0.905900     0.039378    0.140382    1.000000    0.000000
                              0.364300    -0.008983    0.598684    0.000000    0.000000
                              0.128500     0.002385    0.395389    0.000000    1.000000
    5.2 B3u   1  2px         18.710000     0.014031    0.000000    0.000000
    6.2 B3u   2  2px          4.133000     0.086866    0.000000    0.000000
    7.2 B3u                   1.200000     0.290216    0.000000    0.000000
                              0.382700     0.501008    1.000000    0.000000
                              0.120900     0.343406    0.000000    1.000000
    8.2 B3u   1  3d0          1.097000     1.000000
              2 -3d0   
    9.2 B3u   1  3d2+         1.097000     1.000000
              2 -3d2+  
   10.2 B3u   1  3d0          0.318000     1.000000
              2 -3d0   
   11.2 B3u   1  3d2+         0.318000     1.000000
              2 -3d2+  
   12.2 B3u   1  4f1+         0.761000     1.000000
              2  4f1+  
   13.2 B3u   1  4f3+         0.761000     1.000000
              2  4f3+  
   14.2 B3u   3  1s          33.870000     0.006068    0.000000    0.000000
   15.2 B3u   4  1s           5.095000     0.045308    0.000000    0.000000
   16.2 B3u   5 -1s           1.159000     0.202822    0.000000    0.000000
              6 -1s           0.325800     0.503903    1.000000    0.000000
                              0.102700     0.383421    0.000000    1.000000
   17.2 B3u   3  2px          1.407000     1.000000
              4  2px   
              5  2px   
              6  2px   
   18.2 B3u   3  2pz          1.407000     1.000000
              4 -2pz   
              5 -2pz   
              6  2pz   
   19.2 B3u   3  2px          0.388000     1.000000
              4  2px   
              5  2px   
              6  2px   
   20.2 B3u   3  2pz          0.388000     1.000000
              4 -2pz   
              5 -2pz   
              6  2pz   
   21.2 B3u   3  3d0          1.057000     1.000000
              4  3d0   
              5 -3d0   
              6 -3d0   
   22.2 B3u   3  3d2+         1.057000     1.000000
              4  3d2+  
              5 -3d2+  
              6 -3d2+  
   23.2 B3u   3  3d1+         1.057000     1.000000
              4 -3d1+  
              5  3d1+  
              6 -3d1+  
    1.3 B2u   1  2py         18.710000     0.014031    0.000000    0.000000
    2.3 B2u   2  2py          4.133000     0.086866    0.000000    0.000000
    3.3 B2u                   1.200000     0.290216    0.000000    0.000000
                              0.382700     0.501008    1.000000    0.000000
                              0.120900     0.343406    0.000000    1.000000
    4.3 B2u   1  3d2-         1.097000     1.000000
              2 -3d2-  
    5.3 B2u   1  3d2-         0.318000     1.000000
              2 -3d2-  
    6.3 B2u   1  4f1-         0.761000     1.000000
              2  4f1-  
    7.3 B2u   1  4f3-         0.761000     1.000000
              2  4f3-  
    8.3 B2u   3  2py          1.407000     1.000000
              4  2py   
              5  2py   
              6  2py   
    9.3 B2u   3  2py          0.388000     1.000000
              4  2py   
              5  2py   
              6  2py   
   10.3 B2u   3  3d2-         1.057000     1.000000
              4  3d2-  
              5 -3d2-  
              6 -3d2-  
   11.3 B2u   3  3d1-         1.057000     1.000000
              4 -3d1-  
              5  3d1-  
              6 -3d1-  
    1.4 B1g   1  2py         18.710000     0.014031    0.000000    0.000000
    2.4 B1g   2 -2py          4.133000     0.086866    0.000000    0.000000
    3.4 B1g                   1.200000     0.290216    0.000000    0.000000
                              0.382700     0.501008    1.000000    0.000000
                              0.120900     0.343406    0.000000    1.000000
    4.4 B1g   1  3d2-         1.097000     1.000000
              2  3d2-  
    5.4 B1g   1  3d2-         0.318000     1.000000
              2  3d2-  
    6.4 B1g   1  4f1-         0.761000     1.000000
              2 -4f1-  
    7.4 B1g   1  4f3-         0.761000     1.000000
              2 -4f3-  
    8.4 B1g   3  2py          1.407000     1.000000
              4  2py   
              5 -2py   
              6 -2py   
    9.4 B1g   3  2py          0.388000     1.000000
              4  2py   
              5 -2py   
              6 -2py   
   10.4 B1g   3  3d2-         1.057000     1.000000
              4  3d2-  
              5  3d2-  
              6  3d2-  
   11.4 B1g   3  3d1-         1.057000     1.000000
              4 -3d1-  
              5 -3d1-  
              6  3d1-  
    1.5 B1u   1  2pz         18.710000     0.014031    0.000000    0.000000
    2.5 B1u   2  2pz          4.133000     0.086866    0.000000    0.000000
    3.5 B1u                   1.200000     0.290216    0.000000    0.000000
                              0.382700     0.501008    1.000000    0.000000
                              0.120900     0.343406    0.000000    1.000000
    4.5 B1u   1  3d1+         1.097000     1.000000
              2 -3d1+  
    5.5 B1u   1  3d1+         0.318000     1.000000
              2 -3d1+  
    6.5 B1u   1  4f0          0.761000     1.000000
              2  4f0   
    7.5 B1u   1  4f2+         0.761000     1.000000
              2  4f2+  
    8.5 B1u   3  1s          33.870000     0.006068    0.000000    0.000000
    9.5 B1u   4 -1s           5.095000     0.045308    0.000000    0.000000
   10.5 B1u   5  1s           1.159000     0.202822    0.000000    0.000000
              6 -1s           0.325800     0.503903    1.000000    0.000000
                              0.102700     0.383421    0.000000    1.000000
   11.5 B1u   3  2pz          1.407000     1.000000
              4  2pz   
              5  2pz   
              6  2pz   
   12.5 B1u   3  2px          1.407000     1.000000
              4 -2px   
              5 -2px   
              6  2px   
   13.5 B1u   3  2pz          0.388000     1.000000
              4  2pz   
              5  2pz   
              6  2pz   
   14.5 B1u   3  2px          0.388000     1.000000
              4 -2px   
              5 -2px   
              6  2px   
   15.5 B1u   3  3d1+         1.057000     1.000000
              4  3d1+  
              5 -3d1+  
              6 -3d1+  
   16.5 B1u   3  3d0          1.057000     1.000000
              4 -3d0   
              5  3d0   
              6 -3d0   
   17.5 B1u   3  3d2+         1.057000     1.000000
              4 -3d2+  
              5  3d2+  
              6 -3d2+  
    1.6 B2g   1  2pz         18.710000     0.014031    0.000000    0.000000
    2.6 B2g   2 -2pz          4.133000     0.086866    0.000000    0.000000
    3.6 B2g                   1.200000     0.290216    0.000000    0.000000
                              0.382700     0.501008    1.000000    0.000000
                              0.120900     0.343406    0.000000    1.000000
    4.6 B2g   1  3d1+         1.097000     1.000000
              2  3d1+  
    5.6 B2g   1  3d1+         0.318000     1.000000
              2  3d1+  
    6.6 B2g   1  4f0          0.761000     1.000000
              2 -4f0   
    7.6 B2g   1  4f2+         0.761000     1.000000
              2 -4f2+  
    8.6 B2g   3  1s          33.870000     0.006068    0.000000    0.000000
    9.6 B2g   4 -1s           5.095000     0.045308    0.000000    0.000000
   10.6 B2g   5 -1s           1.159000     0.202822    0.000000    0.000000
              6  1s           0.325800     0.503903    1.000000    0.000000
                              0.102700     0.383421    0.000000    1.000000
   11.6 B2g   3  2pz          1.407000     1.000000
              4  2pz   
              5 -2pz   
              6 -2pz   
   12.6 B2g   3  2px          1.407000     1.000000
              4 -2px   
              5  2px   
              6 -2px   
   13.6 B2g   3  2pz          0.388000     1.000000
              4  2pz   
              5 -2pz   
              6 -2pz   
   14.6 B2g   3  2px          0.388000     1.000000
              4 -2px   
              5  2px   
              6 -2px   
   15.6 B2g   3  3d1+         1.057000     1.000000
              4  3d1+  
              5  3d1+  
              6  3d1+  
   16.6 B2g   3  3d0          1.057000     1.000000
              4 -3d0   
              5 -3d0   
              6  3d0   
   17.6 B2g   3  3d2+         1.057000     1.000000
              4 -3d2+  
              5 -3d2+  
              6  3d2+  
    1.7 B3g   1  3d1-         1.097000     1.000000
              2  3d1-  
    2.7 B3g   1  3d1-         0.318000     1.000000
              2  3d1-  
    3.7 B3g   1  4f2-         0.761000     1.000000
              2 -4f2-  
    4.7 B3g   3  2py          1.407000     1.000000
              4 -2py   
              5  2py   
              6 -2py   
    5.7 B3g   3  2py          0.388000     1.000000
              4 -2py   
              5  2py   
              6 -2py   
    6.7 B3g   3  3d1-         1.057000     1.000000
              4  3d1-  
              5  3d1-  
              6  3d1-  
    7.7 B3g   3  3d2-         1.057000     1.000000
              4 -3d2-  
              5 -3d2-  
              6  3d2-  
    1.8 Au    1  3d1-         1.097000     1.000000
              2 -3d1-  
    2.8 Au    1  3d1-         0.318000     1.000000
              2 -3d1-  
    3.8 Au    1  4f2-         0.761000     1.000000
              2  4f2-  
    4.8 Au    3  2py          1.407000     1.000000
              4 -2py   
              5 -2py   
              6  2py   
    5.8 Au    3  2py          0.388000     1.000000
              4 -2py   
              5 -2py   
              6  2py   
    6.8 Au    3  3d1-         1.057000     1.000000
              4  3d1-  
              5 -3d1-  
              6 -3d1-  
    7.8 Au    3  3d2-         1.057000     1.000000
              4 -3d2-  
              5  3d2-  
              6 -3d2-  

 NUCLEAR CHARGE:                   16
 NUMBER OF PRIMITIVE AOS:         162
 NUMBER OF SYMMETRY AOS:          148
 NUMBER OF CONTRACTIONS:          116   (   23Ag  +   23B3u +   11B2u +   11B1g +   17B1u +   17B2g +    7B3g +    7Au  )
 NUMBER OF CORE ORBITALS:           2   (    1Ag  +    1B3u +    0B2u +    0B1g +    0B1u +    0B2g +    0B3g +    0Au  )
 NUMBER OF VALENCE ORBITALS:       12   (    3Ag  +    3B3u +    1B2u +    1B1g +    2B1u +    2B2g +    0B3g +    0Au  )


 NUCLEAR REPULSION ENERGY   33.43354326

 Eigenvalues of metric

         1 0.139E-02 0.543E-02 0.146E-01 0.237E-01 0.389E-01 0.528E-01 0.109E+00 0.126E+00
         2 0.803E-03 0.147E-02 0.155E-02 0.683E-02 0.188E-01 0.298E-01 0.613E-01 0.977E-01
         3 0.340E-01 0.117E+00 0.292E+00 0.386E+00 0.535E+00 0.610E+00 0.124E+01 0.143E+01
         4 0.198E-01 0.609E-01 0.927E-01 0.156E+00 0.280E+00 0.416E+00 0.693E+00 0.122E+01
         5 0.212E-02 0.964E-02 0.281E-01 0.440E-01 0.974E-01 0.131E+00 0.178E+00 0.333E+00
         6 0.102E-02 0.377E-02 0.847E-02 0.133E-01 0.467E-01 0.625E-01 0.841E-01 0.265E+00
         7 0.100E+00 0.333E+00 0.505E+00 0.903E+00 0.128E+01 0.175E+01 0.277E+01
         8 0.508E-01 0.208E+00 0.413E+00 0.628E+00 0.110E+01 0.129E+01 0.244E+01


 Contracted 2-electron integrals neglected if value below      1.0D-11
 AO integral compression algorithm  1   Integral accuracy      1.0D-11

     22.282 MB (compressed) written to integral file ( 59.4%)


 NUMBER OF SORTED TWO-ELECTRON INTEGRALS:    3048425.     BUFFER LENGTH:  32768
 NUMBER OF SEGMENTS:   1  SEGMENT LENGTH:    3048425      RECORD LENGTH: 524288

 Memory used in sort:       3.61 MW

 SORT1 READ     4714640. AND WROTE     3048425. INTEGRALS IN      9 RECORDS. CPU TIME:     0.18 SEC, REAL TIME:     0.25 SEC
 SORT2 READ     3048425. AND WROTE     3048425. INTEGRALS IN     85 RECORDS. CPU TIME:     0.27 SEC, REAL TIME:     0.32 SEC

 FILE SIZES:   FILE 1:    52.7 MBYTE,  FILE 4:    37.8 MBYTE,   TOTAL:     90.4 MBYTE

 OPERATOR DM      FOR CENTER  0  COORDINATES:    0.000000    0.000000    0.000000


 **********************************************************************************************************************************
 DATASETS  * FILE   NREC   LENGTH (MB)   RECORD NAMES
              1      19       44.98       500      610      700      900      950      970     1000      129      960     1100   
                                          VAR    BASINP    GEOM    SYMINP    ZMAT    AOBASIS   BASIS     P2S    ABASIS      S 
                                         1400     1410     1200     1210     1080     1600     1650     1300     1700   
                                           T        V       H0       H01     AOSYM     SMH    MOLCAS    ERIS     OPER   

 PROGRAMS   *        TOTAL       INT
 CPU TIMES  *         1.71      1.55
 REAL TIME  *         2.65 SEC
 DISK USED  *        90.82 MB
 **********************************************************************************************************************************


 PROGRAM * RHF-SCF (OPEN SHELL)       Authors: W. Meyer, H.-J. Werner


 NUMBER OF ELECTRONS:       8+    7-    SPACE SYMMETRY=3    SPIN SYMMETRY: Doublet 
 CONVERGENCE THRESHOLDS:    1.00E-05 (Density)    1.00E-07 (Energy)
 MAX. NUMBER OF ITERATIONS:       60
 INTERPOLATION TYPE:            DIIS
 INTERPOLATION STEPS:              2 (START)      1 (STEP)
 LEVEL SHIFTS:                 -0.60 (CLOSED) -0.30 (OPEN) 



 Orbital guess generated from atomic densities. Full valence occupancy:    4   4   1   1   2   2   0   0


 Molecular orbital dump at record        2100.2

 Initial alpha occupancy:   3   2   1   0   1   1   0   0
 Initial beta  occupancy:   3   2   0   0   1   1   0   0
 Wave function symmetry:    3

 ITERATION    DDIFF          GRAD             ENERGY        2-EL.EN.            DIPOLE MOMENTS         DIIS   ORB.
    1      0.000D+00      0.000D+00       -77.68798749    105.288662    0.00000    0.00000    0.00000    0    start
    2      0.000D+00      0.141D-01       -77.72731394    107.283307    0.00000    0.00000    0.00000    1    diag,B
    3      0.143D-01      0.485D-02       -77.73317268    107.640084    0.00000    0.00000    0.00000    2    diag,B
    4      0.637D-02      0.159D-02       -77.73396906    107.725389    0.00000    0.00000    0.00000    3    diag,B
    5      0.337D-02      0.353D-03       -77.73401036    107.728450    0.00000    0.00000    0.00000    4    diag,B
    6      0.118D-02      0.727D-04       -77.73401208    107.727272    0.00000    0.00000    0.00000    5    diag,B
    7      0.288D-03      0.155D-04       -77.73401216    107.727177    0.00000    0.00000    0.00000    6    fixocc
    8      0.478D-04      0.306D-05       -77.73401217    107.727085    0.00000    0.00000    0.00000    7    diag,B
    9      0.921D-05      0.619D-06       -77.73401217    107.727083    0.00000    0.00000    0.00000    0    orth

 Final alpha occupancy:   3   2   1   0   1   1   0   0
 Final beta  occupancy:   3   2   0   0   1   1   0   0

 !RHF STATE  1.3 Energy               -77.734012166416
 Nuclear energy                        33.43354326
 One-electron energy                 -165.03109716
 Two-electron energy                   53.86354174
 Virial quotient                       -0.99817624
 !RHF STATE  1.3 Dipole moment          0.00000000     0.00000000     0.00000000
 Dipole moment /Debye                   0.00000000     0.00000000     0.00000000

 MOLECULAR ORBITALS
 ==================

   Orb  Occ    Energy       Coefficients

                            1 1s      1 1s      1 1s      1 1s      1 2px     1 2px     1 2px     1 3d0     1 3d2+    1 3d0  
                            1 3d2+    1 4f1+    1 4f3+    2 1s      2 1s      2 1s      2 2px     2 2pz     2 2px     2 2pz  
                            2 3d0     2 3d2+    2 3d1+ 

   1.1   2   -11.5741     0.998885  0.001318  0.002219  0.000443 -0.002151  0.000876  0.001079  0.000263  0.000608  0.000656
                         -0.000315  0.000415  0.000086  0.000664 -0.000316 -0.001268  0.000196  0.000313  0.000330 -0.000261
                         -0.000051 -0.000020 -0.000250

   2.1   2    -1.3608    -0.019417  0.907102 -0.018289 -0.209573 -0.299503  0.049479  0.093040 -0.002163  0.022700  0.002089
                          0.023201  0.012234 -0.004746  0.379701 -0.115549 -0.150045 -0.006055 -0.006185 -0.001621  0.004262
                         -0.001102  0.001003  0.000010

   3.1   2    -0.9077    -0.000396  0.010525  0.003401  0.061740  0.930104 -0.077024 -0.209040  0.023173 -0.016690  0.026007
                         -0.015263 -0.005273  0.005747  0.649058 -0.096706 -0.203086 -0.002996 -0.017491  0.000800 -0.025817
                          0.005441 -0.001307  0.002452

                            1 1s      1 1s      1 1s      1 1s      1 2px     1 2px     1 2px     1 3d0     1 3d2+    1 3d0  
                            1 3d2+    1 4f1+    1 4f3+    2 1s      2 1s      2 1s      2 2px     2 2pz     2 2px     2 2pz  
                            2 3d0     2 3d2+    2 3d1+ 

   1.2   2   -11.5724     0.999603  0.002083  0.001619  0.002447 -0.000333 -0.002349 -0.001508  0.000159  0.001102 -0.001540
                          0.000929  0.001133 -0.000432  0.000206  0.001883 -0.000376  0.000245  0.000431 -0.000859 -0.000411
                         -0.000220  0.000095 -0.000263

   2.2   2    -1.0962    -0.006538  0.749037 -0.012493 -0.035696  0.368358 -0.031851 -0.108127  0.013300  0.004245  0.023594
                          0.007776  0.005964 -0.001180  0.726821 -0.154780 -0.261998 -0.007508 -0.017022 -0.003967 -0.018385
                          0.003591 -0.000057  0.002561

                            1 2py     1 2py     1 2py     1 3d2-    1 3d2-    1 4f1-    1 4f3-    2 2py     2 2py     2 3d2- 
                            2 3d1- 

   1.3   +    -0.7502     0.857070  0.020739 -0.067102 -0.025939 -0.063370 -0.006485  0.008151  0.010213  0.023525 -0.003223
                         -0.004060

                            1 2pz     1 2pz     1 2pz     1 3d1+    1 3d1+    1 4f0     1 4f2+    2 1s      2 1s      2 1s   
                            2 2pz     2 2px     2 2pz     2 2px     2 3d1+    2 3d0     2 3d2+ 

   1.5   2    -0.9581     0.750976 -0.050690 -0.147254  0.003783  0.000664 -0.005007  0.005857  0.764253 -0.115733 -0.267850
                         -0.013526 -0.014990 -0.016833 -0.022299  0.006556  0.000126  0.003484

                            1 2pz     1 2pz     1 2pz     1 3d1+    1 3d1+    1 4f0     1 4f2+    2 1s      2 1s      2 1s   
                            2 2pz     2 2px     2 2pz     2 2px     2 3d1+    2 3d0     2 3d2+ 

   1.6   2    -0.8078     0.724322 -0.025429 -0.043824  0.028744  0.051411  0.004126 -0.000861  0.941011 -0.165990 -0.304244
                         -0.015000 -0.011901 -0.006341 -0.014408  0.003498  0.002080  0.000553


 HOMO      1.3    -0.750222 =     -20.4146eV
 LUMO      1.4    -0.164315 =      -4.4712eV
 LUMO-HOMO         0.585907 =      15.9433eV


 **********************************************************************************************************************************
 DATASETS  * FILE   NREC   LENGTH (MB)   RECORD NAMES
              1      19       44.98       500      610      700      900      950      970     1000      129      960     1100   
                                          VAR    BASINP    GEOM    SYMINP    ZMAT    AOBASIS   BASIS     P2S    ABASIS      S 
                                         1400     1410     1200     1210     1080     1600     1650     1300     1700   
                                           T        V       H0       H01     AOSYM     SMH    MOLCAS    ERIS     OPER   

              2       4        2.91       700     1000      520     2100   
                                         GEOM     BASIS   MCVARS     RHF  

 PROGRAMS   *        TOTAL    HF-SCF       INT
 CPU TIMES  *         1.86      0.15      1.55
 REAL TIME  *         3.36 SEC
 DISK USED  *        90.82 MB
 **********************************************************************************************************************************


 PROGRAM * RMP2 (Restricted open-shell)     Authors: H.-J. Werner, 2001


 Convergence thresholds:  THRVAR = 1.00D-08  THRDEN = 1.00D-06

 Number of core orbitals:           2 (   1   1   0   0   0   0   0   0 )
 Number of closed-shell orbitals:   5 (   2   1   0   0   1   1   0   0 )
 Number of active  orbitals:        1 (   0   0   1   0   0   0   0   0 )
 Number of external orbitals:     108 (  20  21  10  11  16  16   7   7 )

 Reading UHF information from record   2100.2

                               TOTAL       A-A         B-B         A-B
 Pair energies:            -0.27216611 -0.03611682 -0.01672733 -0.21932196
 Singles energies:         -0.00171252 -0.00085865 -0.00085387

 !Reference STATE  1.3 energy         -78.007890792734
 !RMP2 STATE  1.3 correl. energy       -0.273878626318
 !RMP2 STATE  1.3 total energy        -78.007890792734

 !SCS-RMP2 STATE  1.3 correl. energ    -0.280801071403
 !SCS-RMP2 STATE  1.3 total energy    -78.014813237819


 **********************************************************************************************************************************
 DATASETS  * FILE   NREC   LENGTH (MB)   RECORD NAMES
              1      19       44.98       500      610      700      900      950      970     1000      129      960     1100   
                                          VAR    BASINP    GEOM    SYMINP    ZMAT    AOBASIS   BASIS     P2S    ABASIS      S 
                                         1400     1410     1200     1210     1080     1600     1650     1300     1700   
                                           T        V       H0       H01     AOSYM     SMH    MOLCAS    ERIS     OPER   

              2       4        2.91       700     1000      520     2100   
                                         GEOM     BASIS   MCVARS     RHF  

 PROGRAMS   *        TOTAL       MP2    HF-SCF       INT
 CPU TIMES  *         1.97      0.10      0.15      1.55
 REAL TIME  *         3.48 SEC
 DISK USED  *        90.82 MB
 **********************************************************************************************************************************
 Molecular orbitals read from record     2100.2  Type=RHF/CANONICAL (state 1.3)
 Occupation numbers read from record     2100.2  Type=RHF/RHF (state 1.3)
 Orbital energies read from record       2100.2  Type=RHF/CANONICAL (state 1.3)
 Redundancy group numbers read from rec  2100.2  Type=RHF/RHF (state 1.3)

 MP2/cc-pVTZ energy=    -78.007890792734

             MP2          HF-SCF
    -78.00789079    -77.73401217
 **********************************************************************************************************************************
 Molpro calculation terminated
