
 Primary working directories    : /scr/matheus/molpro-14432/molpro.mzUyb0OHG1
 Secondary working directories  : /scr/matheus/molpro-14432/molpro.mzUyb0OHG1
 Wavefunction directory         : /home/matheus/wfu/
 Main file repository           : /scr/matheus/molpro-14432/molpro.mzUyb0OHG1/

 id        : yuriaoto

 Nodes             nprocs
 t-rex.ufabc.int.br    1

 Using customized tuning parameters: mindgm=8; mindgv=16; mindgc=1; mindgr=1; noblas=0; minvec=7
 default implementation of scratch files=df  


 Variables initialized (933), CPU time= 0.00 sec
                                                                                 !! Extra options
 gprint, orbitals=0, civec, basis
 gthresh,thrprint=0
                                                                                 !!!
 
 basis=cc-pvtz                                                                   !Basis set
 
                                                                                 ! Molecule xyz file
 geometry={
 Including file /home/matheus/RAM_tests/C2H4_hf.xyz
 >   6
 > HF-SCF000/CC-PVTZ  ENERGY=-78.06442007
 > C          0.6569568868        0.0000000000        0.0000000000
 > C         -0.6569568868        0.0000000000        0.0000000000
 > H          1.2208512433        0.0000000000        0.9144803305
 > H          1.2208512433        0.0000000000       -0.9144803305
 > H         -1.2208512433        0.0000000000        0.9144803305
 > H         -1.2208512433        0.0000000000       -0.9144803305
 }
 
                                                                                 ! Methods
 {hf
 wf,15,3,1
 }
 
 Commands  initialized (760), CPU time= 0.02 sec, 617 directives.
 Default parameters read. Elapsed time= 0.06 sec

 Checking input...
 Passed
1


                                         ***  PROGRAM SYSTEM MOLPRO  ***
                                       Copyright, TTI GmbH Stuttgart, 2015
                                    Version 2019.2 linked Abr  7 2019 15:10:35


 **********************************************************************************************************************************
 LABEL *                                                                                 
  64 bit serial version                                                                  DATE: 30-Jan-24          TIME: 11:43:16  
 **********************************************************************************************************************************

 SHA1:             3a8a58c585c929645742fb5a1b7541a4ad1da699
 **********************************************************************************************************************************


 THRESHOLDS:

 ZERO    =  1.00D-12  ONEINT  =  1.00D-12  TWOINT  =  1.00D-11  PREFAC  =  1.00D-14  XXXXXX  =  1.00D-09  EORDER  =  1.00D-04
 ENERGY  =  0.00D+00  ETEST   =  0.00D+00  EDENS   =  0.00D+00  THRDEDEF=  1.00D-06  GRADIENT=  1.00D-02  STEP    =  1.00D-03
 ORBITAL =  1.00D-05  CIVEC   =  1.00D-05  COEFF   =  1.00D-04  PRINTCI =  5.00D-02  PUNCHCI =  9.90D+01  OPTGRAD =  3.00D-04
 OPTENERG=  1.00D-06  OPTSTEP =  3.00D-04  THRGRAD =  1.00D-10  COMPRESS=  1.00D-11  VARMIN  =  1.00D-07  VARMAX  =  1.00D-03
 THRDOUB =  0.00D+00  THRDIV  =  1.00D-05  THRRED  =  1.00D-07  THRPSP  =  1.00D+00  THRDC   =  1.00D-10  THRCS   =  1.00D-10
 THRNRM  =  1.00D-08  THREQ   =  0.00D+00  THRDE   =  1.00D+00  THRREF  =  1.00D-05  SPARFAC =  1.00D+00  THRDLP  =  1.00D-07
 THRDIA  =  1.00D-10  THRDLS  =  1.00D-07  THRGPS  =  0.00D+00  THRKEX  =  0.00D+00  THRDIS  =  2.00D-01  THRVAR  =  1.00D-10
 THRLOC  =  1.00D-06  THRGAP  =  1.00D-06  THRLOCT = -1.00D+00  THRGAPT = -1.00D+00  THRORB  =  1.00D-06  THRMLTP =  0.00D+00
 THRCPQCI=  1.00D-10  KEXTA   =  0.00D+00  THRCOARS=  0.00D+00  SYMTOL  =  1.00D-06  GRADTOL =  1.00D-06  THROVL  =  1.00D-08
 THRORTH =  1.00D-08  GRID    =  1.00D-06  GRIDMAX =  1.00D-03  DTMAX   =  0.00D+00  THROCCDE=  1.00D-01  THROCCDE=  1.00D-01
 THRPRINT=  0.00D+00


 Variable memory set to    8000000 words,  buffer space 

 SETTING BASIS          =    CC-PVTZ

Geometry recognized as XYZ



 Recomputing integrals since basis changed


 Using spherical harmonics

 Library entry C      S cc-pVTZ              selected for orbital group  1
 Library entry C      P cc-pVTZ              selected for orbital group  1
 Library entry C      D cc-pVTZ              selected for orbital group  1
 Library entry C      F cc-pVTZ              selected for orbital group  1
 Library entry H      S cc-pVTZ              selected for orbital group  2
 Library entry H      P cc-pVTZ              selected for orbital group  2
 Library entry H      D cc-pVTZ              selected for orbital group  2


 PROGRAM * SEWARD (Integral evaluation for generally contracted gaussian basis sets)     Author: Roland Lindh, 1990

 Geometry written to block  1 of record 700


 Point group  D2h 



 ATOMIC COORDINATES

 NR  ATOM    CHARGE       X              Y              Z

   1  C       6.00    1.241468592    0.000000000    0.000000000
   2  C       6.00   -1.241468592    0.000000000    0.000000000
   3  H       1.00    2.307074489    0.000000000    1.728117371
   4  H       1.00    2.307074489    0.000000000   -1.728117371
   5  H       1.00   -2.307074489    0.000000000    1.728117371
   6  H       1.00   -2.307074489    0.000000000   -1.728117371

 Bond lengths in Bohr (Angstrom)

 1-2  2.482937183  1-3  2.030247664  1-4  2.030247664  2-5  2.030247664  2-6  2.030247664
     ( 1.313913774)     ( 1.074360796)     ( 1.074360796)     ( 1.074360796)     ( 1.074360796)

 Bond angles

  1-2-5  121.65915414   1-2-6  121.65915414   2-1-3  121.65915414   2-1-4  121.65915414

  3-1-4  116.68169172   5-2-6  116.68169172


 BASIS DATA

   Nr Sym  Nuc  Type         Exponents   Contraction coefficients

    1.1 Ag    1  1s        8236.000000     0.000531   -0.000113    0.000000    0.000000
    2.1 Ag    2  1s        1235.000000     0.004108   -0.000878    0.000000    0.000000
    3.1 Ag                  280.800000     0.021087   -0.004540    0.000000    0.000000
    4.1 Ag                   79.270000     0.081853   -0.018133    0.000000    0.000000
                             25.590000     0.234817   -0.055760    0.000000    0.000000
                              8.997000     0.434401   -0.126895    0.000000    0.000000
                              3.319000     0.346129   -0.170352    0.000000    0.000000
                              0.905900     0.039378    0.140382    1.000000    0.000000
                              0.364300    -0.008983    0.598684    0.000000    0.000000
                              0.128500     0.002385    0.395389    0.000000    1.000000
    5.1 Ag    1  2px         18.710000     0.014031    0.000000    0.000000
    6.1 Ag    2 -2px          4.133000     0.086866    0.000000    0.000000
    7.1 Ag                    1.200000     0.290216    0.000000    0.000000
                              0.382700     0.501008    1.000000    0.000000
                              0.120900     0.343406    0.000000    1.000000
    8.1 Ag    1  3d0          1.097000     1.000000
              2  3d0   
    9.1 Ag    1  3d2+         1.097000     1.000000
              2  3d2+  
   10.1 Ag    1  3d0          0.318000     1.000000
              2  3d0   
   11.1 Ag    1  3d2+         0.318000     1.000000
              2  3d2+  
   12.1 Ag    1  4f1+         0.761000     1.000000
              2 -4f1+  
   13.1 Ag    1  4f3+         0.761000     1.000000
              2 -4f3+  
   14.1 Ag    3  1s          33.870000     0.006068    0.000000    0.000000
   15.1 Ag    4  1s           5.095000     0.045308    0.000000    0.000000
   16.1 Ag    5  1s           1.159000     0.202822    0.000000    0.000000
              6  1s           0.325800     0.503903    1.000000    0.000000
                              0.102700     0.383421    0.000000    1.000000
   17.1 Ag    3  2px          1.407000     1.000000
              4  2px   
              5 -2px   
              6 -2px   
   18.1 Ag    3  2pz          1.407000     1.000000
              4 -2pz   
              5  2pz   
              6 -2pz   
   19.1 Ag    3  2px          0.388000     1.000000
              4  2px   
              5 -2px   
              6 -2px   
   20.1 Ag    3  2pz          0.388000     1.000000
              4 -2pz   
              5  2pz   
              6 -2pz   
   21.1 Ag    3  3d0          1.057000     1.000000
              4  3d0   
              5  3d0   
              6  3d0   
   22.1 Ag    3  3d2+         1.057000     1.000000
              4  3d2+  
              5  3d2+  
              6  3d2+  
   23.1 Ag    3  3d1+         1.057000     1.000000
              4 -3d1+  
              5 -3d1+  
              6  3d1+  
    1.2 B3u   1  1s        8236.000000     0.000531   -0.000113    0.000000    0.000000
    2.2 B3u   2 -1s        1235.000000     0.004108   -0.000878    0.000000    0.000000
    3.2 B3u                 280.800000     0.021087   -0.004540    0.000000    0.000000
    4.2 B3u                  79.270000     0.081853   -0.018133    0.000000    0.000000
                             25.590000     0.234817   -0.055760    0.000000    0.000000
                              8.997000     0.434401   -0.126895    0.000000    0.000000
                              3.319000     0.346129   -0.170352    0.000000    0.000000
                              0.905900     0.039378    0.140382    1.000000    0.000000
                              0.364300    -0.008983    0.598684    0.000000    0.000000
                              0.128500     0.002385    0.395389    0.000000    1.000000
    5.2 B3u   1  2px         18.710000     0.014031    0.000000    0.000000
    6.2 B3u   2  2px          4.133000     0.086866    0.000000    0.000000
    7.2 B3u                   1.200000     0.290216    0.000000    0.000000
                              0.382700     0.501008    1.000000    0.000000
                              0.120900     0.343406    0.000000    1.000000
    8.2 B3u   1  3d0          1.097000     1.000000
              2 -3d0   
    9.2 B3u   1  3d2+         1.097000     1.000000
              2 -3d2+  
   10.2 B3u   1  3d0          0.318000     1.000000
              2 -3d0   
   11.2 B3u   1  3d2+         0.318000     1.000000
              2 -3d2+  
   12.2 B3u   1  4f1+         0.761000     1.000000
              2  4f1+  
   13.2 B3u   1  4f3+         0.761000     1.000000
              2  4f3+  
   14.2 B3u   3  1s          33.870000     0.006068    0.000000    0.000000
   15.2 B3u   4  1s           5.095000     0.045308    0.000000    0.000000
   16.2 B3u   5 -1s           1.159000     0.202822    0.000000    0.000000
              6 -1s           0.325800     0.503903    1.000000    0.000000
                              0.102700     0.383421    0.000000    1.000000
   17.2 B3u   3  2px          1.407000     1.000000
              4  2px   
              5  2px   
              6  2px   
   18.2 B3u   3  2pz          1.407000     1.000000
              4 -2pz   
              5 -2pz   
              6  2pz   
   19.2 B3u   3  2px          0.388000     1.000000
              4  2px   
              5  2px   
              6  2px   
   20.2 B3u   3  2pz          0.388000     1.000000
              4 -2pz   
              5 -2pz   
              6  2pz   
   21.2 B3u   3  3d0          1.057000     1.000000
              4  3d0   
              5 -3d0   
              6 -3d0   
   22.2 B3u   3  3d2+         1.057000     1.000000
              4  3d2+  
              5 -3d2+  
              6 -3d2+  
   23.2 B3u   3  3d1+         1.057000     1.000000
              4 -3d1+  
              5  3d1+  
              6 -3d1+  
    1.3 B2u   1  2py         18.710000     0.014031    0.000000    0.000000
    2.3 B2u   2  2py          4.133000     0.086866    0.000000    0.000000
    3.3 B2u                   1.200000     0.290216    0.000000    0.000000
                              0.382700     0.501008    1.000000    0.000000
                              0.120900     0.343406    0.000000    1.000000
    4.3 B2u   1  3d2-         1.097000     1.000000
              2 -3d2-  
    5.3 B2u   1  3d2-         0.318000     1.000000
              2 -3d2-  
    6.3 B2u   1  4f1-         0.761000     1.000000
              2  4f1-  
    7.3 B2u   1  4f3-         0.761000     1.000000
              2  4f3-  
    8.3 B2u   3  2py          1.407000     1.000000
              4  2py   
              5  2py   
              6  2py   
    9.3 B2u   3  2py          0.388000     1.000000
              4  2py   
              5  2py   
              6  2py   
   10.3 B2u   3  3d2-         1.057000     1.000000
              4  3d2-  
              5 -3d2-  
              6 -3d2-  
   11.3 B2u   3  3d1-         1.057000     1.000000
              4 -3d1-  
              5  3d1-  
              6 -3d1-  
    1.4 B1g   1  2py         18.710000     0.014031    0.000000    0.000000
    2.4 B1g   2 -2py          4.133000     0.086866    0.000000    0.000000
    3.4 B1g                   1.200000     0.290216    0.000000    0.000000
                              0.382700     0.501008    1.000000    0.000000
                              0.120900     0.343406    0.000000    1.000000
    4.4 B1g   1  3d2-         1.097000     1.000000
              2  3d2-  
    5.4 B1g   1  3d2-         0.318000     1.000000
              2  3d2-  
    6.4 B1g   1  4f1-         0.761000     1.000000
              2 -4f1-  
    7.4 B1g   1  4f3-         0.761000     1.000000
              2 -4f3-  
    8.4 B1g   3  2py          1.407000     1.000000
              4  2py   
              5 -2py   
              6 -2py   
    9.4 B1g   3  2py          0.388000     1.000000
              4  2py   
              5 -2py   
              6 -2py   
   10.4 B1g   3  3d2-         1.057000     1.000000
              4  3d2-  
              5  3d2-  
              6  3d2-  
   11.4 B1g   3  3d1-         1.057000     1.000000
              4 -3d1-  
              5 -3d1-  
              6  3d1-  
    1.5 B1u   1  2pz         18.710000     0.014031    0.000000    0.000000
    2.5 B1u   2  2pz          4.133000     0.086866    0.000000    0.000000
    3.5 B1u                   1.200000     0.290216    0.000000    0.000000
                              0.382700     0.501008    1.000000    0.000000
                              0.120900     0.343406    0.000000    1.000000
    4.5 B1u   1  3d1+         1.097000     1.000000
              2 -3d1+  
    5.5 B1u   1  3d1+         0.318000     1.000000
              2 -3d1+  
    6.5 B1u   1  4f0          0.761000     1.000000
              2  4f0   
    7.5 B1u   1  4f2+         0.761000     1.000000
              2  4f2+  
    8.5 B1u   3  1s          33.870000     0.006068    0.000000    0.000000
    9.5 B1u   4 -1s           5.095000     0.045308    0.000000    0.000000
   10.5 B1u   5  1s           1.159000     0.202822    0.000000    0.000000
              6 -1s           0.325800     0.503903    1.000000    0.000000
                              0.102700     0.383421    0.000000    1.000000
   11.5 B1u   3  2pz          1.407000     1.000000
              4  2pz   
              5  2pz   
              6  2pz   
   12.5 B1u   3  2px          1.407000     1.000000
              4 -2px   
              5 -2px   
              6  2px   
   13.5 B1u   3  2pz          0.388000     1.000000
              4  2pz   
              5  2pz   
              6  2pz   
   14.5 B1u   3  2px          0.388000     1.000000
              4 -2px   
              5 -2px   
              6  2px   
   15.5 B1u   3  3d1+         1.057000     1.000000
              4  3d1+  
              5 -3d1+  
              6 -3d1+  
   16.5 B1u   3  3d0          1.057000     1.000000
              4 -3d0   
              5  3d0   
              6 -3d0   
   17.5 B1u   3  3d2+         1.057000     1.000000
              4 -3d2+  
              5  3d2+  
              6 -3d2+  
    1.6 B2g   1  2pz         18.710000     0.014031    0.000000    0.000000
    2.6 B2g   2 -2pz          4.133000     0.086866    0.000000    0.000000
    3.6 B2g                   1.200000     0.290216    0.000000    0.000000
                              0.382700     0.501008    1.000000    0.000000
                              0.120900     0.343406    0.000000    1.000000
    4.6 B2g   1  3d1+         1.097000     1.000000
              2  3d1+  
    5.6 B2g   1  3d1+         0.318000     1.000000
              2  3d1+  
    6.6 B2g   1  4f0          0.761000     1.000000
              2 -4f0   
    7.6 B2g   1  4f2+         0.761000     1.000000
              2 -4f2+  
    8.6 B2g   3  1s          33.870000     0.006068    0.000000    0.000000
    9.6 B2g   4 -1s           5.095000     0.045308    0.000000    0.000000
   10.6 B2g   5 -1s           1.159000     0.202822    0.000000    0.000000
              6  1s           0.325800     0.503903    1.000000    0.000000
                              0.102700     0.383421    0.000000    1.000000
   11.6 B2g   3  2pz          1.407000     1.000000
              4  2pz   
              5 -2pz   
              6 -2pz   
   12.6 B2g   3  2px          1.407000     1.000000
              4 -2px   
              5  2px   
              6 -2px   
   13.6 B2g   3  2pz          0.388000     1.000000
              4  2pz   
              5 -2pz   
              6 -2pz   
   14.6 B2g   3  2px          0.388000     1.000000
              4 -2px   
              5  2px   
              6 -2px   
   15.6 B2g   3  3d1+         1.057000     1.000000
              4  3d1+  
              5  3d1+  
              6  3d1+  
   16.6 B2g   3  3d0          1.057000     1.000000
              4 -3d0   
              5 -3d0   
              6  3d0   
   17.6 B2g   3  3d2+         1.057000     1.000000
              4 -3d2+  
              5 -3d2+  
              6  3d2+  
    1.7 B3g   1  3d1-         1.097000     1.000000
              2  3d1-  
    2.7 B3g   1  3d1-         0.318000     1.000000
              2  3d1-  
    3.7 B3g   1  4f2-         0.761000     1.000000
              2 -4f2-  
    4.7 B3g   3  2py          1.407000     1.000000
              4 -2py   
              5  2py   
              6 -2py   
    5.7 B3g   3  2py          0.388000     1.000000
              4 -2py   
              5  2py   
              6 -2py   
    6.7 B3g   3  3d1-         1.057000     1.000000
              4  3d1-  
              5  3d1-  
              6  3d1-  
    7.7 B3g   3  3d2-         1.057000     1.000000
              4 -3d2-  
              5 -3d2-  
              6  3d2-  
    1.8 Au    1  3d1-         1.097000     1.000000
              2 -3d1-  
    2.8 Au    1  3d1-         0.318000     1.000000
              2 -3d1-  
    3.8 Au    1  4f2-         0.761000     1.000000
              2  4f2-  
    4.8 Au    3  2py          1.407000     1.000000
              4 -2py   
              5 -2py   
              6  2py   
    5.8 Au    3  2py          0.388000     1.000000
              4 -2py   
              5 -2py   
              6  2py   
    6.8 Au    3  3d1-         1.057000     1.000000
              4  3d1-  
              5 -3d1-  
              6 -3d1-  
    7.8 Au    3  3d2-         1.057000     1.000000
              4 -3d2-  
              5  3d2-  
              6 -3d2-  

 NUCLEAR CHARGE:                   16
 NUMBER OF PRIMITIVE AOS:         162
 NUMBER OF SYMMETRY AOS:          148
 NUMBER OF CONTRACTIONS:          116   (   23Ag  +   23B3u +   11B2u +   11B1g +   17B1u +   17B2g +    7B3g +    7Au  )
 NUMBER OF CORE ORBITALS:           2   (    1Ag  +    1B3u +    0B2u +    0B1g +    0B1u +    0B2g +    0B3g +    0Au  )
 NUMBER OF VALENCE ORBITALS:       12   (    3Ag  +    3B3u +    1B2u +    1B1g +    2B1u +    2B2g +    0B3g +    0Au  )


 NUCLEAR REPULSION ENERGY   33.75982481

 Eigenvalues of metric

         1 0.136E-02 0.530E-02 0.145E-01 0.224E-01 0.376E-01 0.521E-01 0.106E+00 0.124E+00
         2 0.768E-03 0.137E-02 0.150E-02 0.658E-02 0.185E-01 0.287E-01 0.589E-01 0.967E-01
         3 0.337E-01 0.115E+00 0.291E+00 0.379E+00 0.537E+00 0.600E+00 0.124E+01 0.143E+01
         4 0.189E-01 0.594E-01 0.909E-01 0.149E+00 0.271E+00 0.412E+00 0.682E+00 0.122E+01
         5 0.208E-02 0.945E-02 0.278E-01 0.430E-01 0.964E-01 0.128E+00 0.171E+00 0.333E+00
         6 0.976E-03 0.356E-02 0.785E-02 0.131E-01 0.457E-01 0.593E-01 0.827E-01 0.259E+00
         7 0.991E-01 0.326E+00 0.506E+00 0.903E+00 0.128E+01 0.177E+01 0.278E+01
         8 0.493E-01 0.199E+00 0.410E+00 0.617E+00 0.110E+01 0.129E+01 0.244E+01


 Contracted 2-electron integrals neglected if value below      1.0D-11
 AO integral compression algorithm  1   Integral accuracy      1.0D-11

     22.282 MB (compressed) written to integral file ( 59.5%)


 NUMBER OF SORTED TWO-ELECTRON INTEGRALS:    3048425.     BUFFER LENGTH:  32768
 NUMBER OF SEGMENTS:   1  SEGMENT LENGTH:    3048425      RECORD LENGTH: 524288

 Memory used in sort:       3.61 MW

 SORT1 READ     4714640. AND WROTE     3048425. INTEGRALS IN      9 RECORDS. CPU TIME:     0.13 SEC, REAL TIME:     0.19 SEC
 SORT2 READ     3048425. AND WROTE     3048425. INTEGRALS IN     85 RECORDS. CPU TIME:     0.28 SEC, REAL TIME:     0.32 SEC

 FILE SIZES:   FILE 1:    52.7 MBYTE,  FILE 4:    37.8 MBYTE,   TOTAL:     90.4 MBYTE

 OPERATOR DM      FOR CENTER  0  COORDINATES:    0.000000    0.000000    0.000000


 **********************************************************************************************************************************
 DATASETS  * FILE   NREC   LENGTH (MB)   RECORD NAMES
              1      19       45.00       500      610      700      900      950      970     1000      129      960     1100   
                                          VAR    BASINP    GEOM    SYMINP    ZMAT    AOBASIS   BASIS     P2S    ABASIS      S 
                                         1400     1410     1200     1210     1080     1600     1650     1300     1700   
                                           T        V       H0       H01     AOSYM     SMH    MOLCAS    ERIS     OPER   

 PROGRAMS   *        TOTAL       INT
 CPU TIMES  *         1.57      1.45
 REAL TIME  *         4.02 SEC
 DISK USED  *        90.82 MB
 **********************************************************************************************************************************


 PROGRAM * RHF-SCF (OPEN SHELL)       Authors: W. Meyer, H.-J. Werner


 NUMBER OF ELECTRONS:       8+    7-    SPACE SYMMETRY=3    SPIN SYMMETRY: Doublet 
 CONVERGENCE THRESHOLDS:    1.00E-05 (Density)    1.00E-07 (Energy)
 MAX. NUMBER OF ITERATIONS:       60
 INTERPOLATION TYPE:            DIIS
 INTERPOLATION STEPS:              2 (START)      1 (STEP)
 LEVEL SHIFTS:                 -0.60 (CLOSED) -0.30 (OPEN) 



 Orbital guess generated from atomic densities. Full valence occupancy:    4   4   1   1   2   2   0   0


 Molecular orbital dump at record        2100.2

 Initial alpha occupancy:   3   2   1   0   1   1   0   0
 Initial beta  occupancy:   3   2   0   0   1   1   0   0
 Wave function symmetry:    3

 ITERATION    DDIFF          GRAD             ENERGY        2-EL.EN.            DIPOLE MOMENTS         DIIS   ORB.
    1      0.000D+00      0.000D+00       -77.68591756    105.909701    0.00000    0.00000    0.00000    0    start
    2      0.000D+00      0.140D-01       -77.72425561    107.859164    0.00000    0.00000    0.00000    1    diag,B
    3      0.142D-01      0.484D-02       -77.73009134    108.210692    0.00000    0.00000    0.00000    2    diag,B
    4      0.645D-02      0.157D-02       -77.73086080    108.293511    0.00000    0.00000    0.00000    3    diag,B
    5      0.335D-02      0.351D-03       -77.73090122    108.296501    0.00000    0.00000    0.00000    4    diag,B
    6      0.119D-02      0.723D-04       -77.73090290    108.295326    0.00000    0.00000    0.00000    5    diag,B
    7      0.290D-03      0.155D-04       -77.73090298    108.295228    0.00000    0.00000    0.00000    6    fixocc
    8      0.490D-04      0.306D-05       -77.73090299    108.295136    0.00000    0.00000    0.00000    7    diag,B
    9      0.926D-05      0.619D-06       -77.73090299    108.295134    0.00000    0.00000    0.00000    0    orth

 Final alpha occupancy:   3   2   1   0   1   1   0   0
 Final beta  occupancy:   3   2   0   0   1   1   0   0

 !RHF STATE  1.3 Energy               -77.730902987533
 Nuclear energy                        33.75982481
 One-electron energy                 -165.63829458
 Two-electron energy                   54.14756678
 Virial quotient                       -0.99690115
 !RHF STATE  1.3 Dipole moment          0.00000000     0.00000000     0.00000000
 Dipole moment /Debye                   0.00000000     0.00000000     0.00000000

 MOLECULAR ORBITALS
 ==================

   Orb  Occ    Energy       Coefficients

                            1 1s      1 1s      1 1s      1 1s      1 2px     1 2px     1 2px     1 3d0     1 3d2+    1 3d0  
                            1 3d2+    1 4f1+    1 4f3+    2 1s      2 1s      2 1s      2 2px     2 2pz     2 2px     2 2pz  
                            2 3d0     2 3d2+    2 3d1+ 

   1.1   2   -11.5715     0.998790  0.001288  0.002355  0.000421 -0.002201  0.000864  0.001104  0.000252  0.000640  0.000694
                         -0.000363  0.000446  0.000067  0.000553 -0.000204 -0.001221  0.000206  0.000322  0.000341 -0.000316
                         -0.000034 -0.000010 -0.000249

   2.1   2    -1.3690    -0.020151  0.910595 -0.018789 -0.212027 -0.310830  0.055035  0.097539 -0.002476  0.023319  0.002389
                          0.023739  0.012433 -0.004820  0.377613 -0.119683 -0.149999 -0.006063 -0.006002 -0.000577  0.006121
                         -0.001234  0.000950 -0.000137

   3.1   2    -0.9144    -0.000050  0.012164  0.003315  0.062409  0.935756 -0.082823 -0.213535  0.023203 -0.016887  0.025431
                         -0.015213 -0.005437  0.005762  0.655707 -0.097937 -0.206548 -0.003258 -0.017782  0.000082 -0.026639
                          0.005486 -0.001225  0.002635

                            1 1s      1 1s      1 1s      1 1s      1 2px     1 2px     1 2px     1 3d0     1 3d2+    1 3d0  
                            1 3d2+    1 4f1+    1 4f3+    2 1s      2 1s      2 1s      2 2px     2 2pz     2 2px     2 2pz  
                            2 3d0     2 3d2+    2 3d1+ 

   1.2   2   -11.5697     0.999635  0.002360  0.001743  0.002445 -0.000377 -0.002839 -0.001617  0.000122  0.001179 -0.001733
                          0.001008  0.001158 -0.000451  0.000184  0.002205 -0.000325  0.000251  0.000425 -0.000952 -0.000491
                         -0.000204  0.000094 -0.000261

   2.2   2    -1.0985    -0.006660  0.746135 -0.012639 -0.032829  0.372756 -0.033386 -0.110465  0.013147  0.004400  0.023441
                          0.008169  0.005755 -0.001152  0.733069 -0.157920 -0.264769 -0.007679 -0.017258 -0.003914 -0.018155
                          0.003626 -0.000094  0.002629

                            1 2py     1 2py     1 2py     1 3d2-    1 3d2-    1 4f1-    1 4f3-    2 2py     2 2py     2 3d2- 
                            2 3d1- 

   1.3   +    -0.7571     0.860790  0.019095 -0.073203 -0.026906 -0.063294 -0.006644  0.008339  0.010292  0.023467 -0.003311
                         -0.004032

                            1 2pz     1 2pz     1 2pz     1 3d1+    1 3d1+    1 4f0     1 4f2+    2 1s      2 1s      2 1s   
                            2 2pz     2 2px     2 2pz     2 2px     2 3d1+    2 3d0     2 3d2+ 

   1.5   2    -0.9628     0.754452 -0.052043 -0.149775  0.003224  0.000698 -0.005283  0.006039  0.764845 -0.117908 -0.269039
                         -0.013472 -0.015337 -0.016266 -0.022420  0.006575 -0.000028  0.003585

                            1 2pz     1 2pz     1 2pz     1 3d1+    1 3d1+    1 4f0     1 4f2+    2 1s      2 1s      2 1s   
                            2 2pz     2 2px     2 2pz     2 2px     2 3d1+    2 3d0     2 3d2+ 

   1.6   2    -0.8071     0.724742 -0.025141 -0.041985  0.029333  0.052110  0.004291 -0.001048  0.947128 -0.169409 -0.306876
                         -0.014999 -0.012020 -0.005832 -0.014018  0.003388  0.002070  0.000496


 HOMO      1.3    -0.757056 =     -20.6006eV
 LUMO      1.4    -0.160848 =      -4.3769eV
 LUMO-HOMO         0.596208 =      16.2236eV


 **********************************************************************************************************************************
 DATASETS  * FILE   NREC   LENGTH (MB)   RECORD NAMES
              1      19       45.00       500      610      700      900      950      970     1000      129      960     1100   
                                          VAR    BASINP    GEOM    SYMINP    ZMAT    AOBASIS   BASIS     P2S    ABASIS      S 
                                         1400     1410     1200     1210     1080     1600     1650     1300     1700   
                                           T        V       H0       H01     AOSYM     SMH    MOLCAS    ERIS     OPER   

              2       4        2.91       700     1000      520     2100   
                                         GEOM     BASIS   MCVARS     RHF  

 PROGRAMS   *        TOTAL    HF-SCF       INT
 CPU TIMES  *         1.78      0.21      1.45
 REAL TIME  *         4.30 SEC
 DISK USED  *        90.82 MB
 **********************************************************************************************************************************
 Molecular orbitals read from record     2100.2  Type=RHF/CANONICAL (state 1.3)
 Occupation numbers read from record     2100.2  Type=RHF/RHF (state 1.3)
 Orbital energies read from record       2100.2  Type=RHF/CANONICAL (state 1.3)
 Redundancy group numbers read from rec  2100.2  Type=RHF/RHF (state 1.3)

 HF/cc-pVTZ energy=    -77.730902987533

          HF-SCF
    -77.73090299
 **********************************************************************************************************************************
 Molpro calculation terminated
